/*--------------------------------*- C++ -*----------------------------------*\
  =========                 |
  \\      /  F ield         | OpenFOAM: The Open Source CFD Toolbox
   \\    /   O peration     | Website:  https://openfoam.org
    \\  /    A nd           | Version:  8
     \\/     M anipulation  |
\*---------------------------------------------------------------------------*/
FoamFile
{
    version     2.0;
    format      ascii;
    class       volVectorField;
    location    "10";
    object      U;
}
// * * * * * * * * * * * * * * * * * * * * * * * * * * * * * * * * * * * * * //

dimensions      [0 1 -1 0 0 0 0];

internalField   nonuniform List<vector> 
127143
(
(0.08318 -0.00234 2.094e-22)
(-0.002488 -0.01177 -1.62e-22)
(0.001233 0.006059 1.56e-22)
(0.001899 0.008684 0)
(0.6718 0.2252 0)
(0.001835 0.008596 0)
(0.6765 0.4072 5.138e-22)
(0.6884 0.3148 0)
(0.6017 0.2732 1.632e-21)
(0.6596 0.02721 3.11e-21)
(0.3714 0.5389 0)
(0.617 0.3811 6.582e-23)
(0.03849 -0.01473 4.051e-23)
(0.002474 0.009369 0)
(0.3224 -0.333 0)
(0.7332 -0.05234 6.836e-23)
(-0.00532 -0.02168 2.136e-22)
(0.7361 -0.06833 0)
(0.6299 -0.1378 -8.046e-22)
(0.8347 0.0008761 1.465e-22)
(0.9077 -0.2153 0)
(0.2744 -0.09891 1.277e-22)
(1.03 -0.163 6.429e-22)
(1.111 -0.1025 6.054e-23)
(0.2728 -0.09892 3.765e-22)
(1.089 -0.1753 0)
(1.157 -0.0115 7.945e-23)
(1.154 0.01652 -5.792e-21)
(0.9206 -0.4247 0)
(0.7872 -0.05327 6.149e-21)
(1.104 -0.07466 2.435e-23)
(1.065 -0.1769 9.147e-22)
(1.236 0.3147 7.577e-22)
(0.8605 -0.2119 -1.134e-21)
(0.8956 -0.08639 6.086e-23)
(1.25 0.321 7.434e-22)
(0.5699 -0.1866 -8.074e-22)
(1.033 -0.1605 6.206e-22)
(1.116 -0.1029 2.835e-23)
(1.085 -0.04526 1.066e-22)
(0.6295 -0.1364 -2.749e-22)
(1.11 0.2853 0)
(1.088 0.2731 4.437e-22)
(0.07879 -0.02576 -4.176e-22)
(0.738 -0.06398 0)
(0.8675 -0.2114 1.098e-21)
(0.9321 -0.4267 0)
(0.6032 -0.1871 -3.259e-22)
(1.14 -0.1959 -2.232e-23)
(1.111 -0.09223 -1.326e-23)
(0.787 -0.05679 8.137e-23)
(0.9519 -0.03726 2.812e-21)
(1.126 -0.1348 -3.194e-22)
(1.085 -0.05792 -6.866e-24)
(1 -0.00251 -4.015e-21)
(1.115 -0.2826 -2.003e-21)
(0.9996 -0.002711 3.834e-21)
(1.11 -0.1014 -1.047e-22)
(1.001 -0.01736 4.049e-22)
(1.086 -0.05456 8.718e-22)
(0.6779 -0.1854 -6.682e-22)
(0.7068 -0.1918 0)
(1.123 -0.08787 3.355e-24)
(1.002 0.001081 0)
(1.162 -0.1115 3.398e-21)
(1.014 -0.2765 -5.4e-22)
(1.056 0.02277 9.826e-22)
(1.122 -0.09005 0)
(1.122 -0.08997 0)
(0.998 0.0006327 3.569e-21)
(1.105 -0.09222 1.642e-23)
(1.182 -0.00289 -2.253e-21)
(0.5643 -0.09918 3.426e-22)
(1.002 -0.01664 0)
(1.007 0.00605 6.288e-21)
(1.187 0.01372 4.986e-21)
(1.02 0.04158 0)
(0.6518 -0.2035 3.907e-22)
(1.116 -0.2825 9.993e-22)
(1.001 0.001428 -5.221e-21)
(0.9346 -0.4191 -2.505e-21)
(0.8766 -0.004914 -3.284e-22)
(0.9054 -0.2129 2.385e-21)
(1.075 -0.06917 -7.178e-23)
(0.502 -0.1262 0)
(0.6467 -0.2013 -7.339e-22)
(1.122 -0.1117 -1.003e-22)
(1.242 0.1008 6.811e-22)
(1.01 -0.274 0)
(1.207 0.6063 0)
(0.9964 -0.02918 -6.032e-21)
(0.9474 -0.1518 -2.275e-21)
(1.191 0.5853 0)
(0.9086 -0.215 -4.052e-22)
(0.9959 -0.2 1.776e-21)
(1.043 -0.03786 6.571e-22)
(1.109 0.2783 0)
(1.082 -0.08455 3.468e-24)
(0.7278 -0.2128 6.033e-22)
(1.055 0.02694 0)
(1.001 0.001387 9.8e-21)
(1.141 -0.1962 -1.817e-22)
(0.9626 0.8253 0)
(1.127 -0.1299 1.124e-22)
(0.6475 -0.2011 6.793e-22)
(0.7262 -0.213 0)
(1.14 -0.1745 -1.124e-22)
(0.9979 0.000634 -2.654e-21)
(0.9022 -0.3546 -2.545e-22)
(1.005 -0.001267 3.514e-20)
(0.3312 -0.3336 -3.39e-21)
(1.23 0.1086 6.187e-22)
(0.9508 -0.2102 7.437e-22)
(0.3532 0.2312 9.206e-22)
(0.9952 0.02091 -1.858e-21)
(1.122 -0.1802 1.123e-22)
(0.9962 0.05246 0)
(1.007 0.006287 -3.265e-21)
(1.02 0.04092 -2.323e-22)
(0.003406 0.02176 1.187e-22)
(1.005 -0.001451 -2.931e-20)
(0.8698 -0.2177 1.181e-21)
(1.028 -0.3636 -5.038e-22)
(1.095 -0.1103 -6.279e-23)
(0.9321 -0.4277 4.746e-21)
(1.019 -0.1354 7.117e-23)
(0.744 -0.2061 0)
(1.028 -0.005667 0)
(1.178 -0.1049 -2.753e-22)
(1.099 -0.3139 0)
(0.7404 -0.2177 1.733e-21)
(0.9337 -0.2134 0)
(1.126 -0.1023 -5.051e-23)
(0.6519 -0.2031 -1.921e-22)
(-0.00822 -0.03114 -7.955e-22)
(0.7415 -0.2177 -1.822e-21)
(0.9497 -0.07215 -1.619e-21)
(0.9267 -0.2098 -2.06e-21)
(0.8438 -0.4659 2.392e-21)
(0.9882 -0.06787 -3.711e-21)
(1.029 -0.195 -2.545e-22)
(0.9889 0.04528 -8.533e-22)
(1.079 -0.1563 0)
(0.985 -0.191 -1.051e-21)
(1.126 -0.1345 4.737e-22)
(1.283 0.3063 4.232e-22)
(0.01081 0.0673 -1.748e-21)
(1.002 0.0009101 -1.967e-23)
(0.933 -0.2134 -8.223e-23)
(1.045 0.8239 -1.434e-23)
(1.128 -0.1213 -1.135e-22)
(1.14 -0.2189 3.378e-22)
(1.041 -0.1528 0)
(0.9027 -0.1642 0)
(0.5757 -0.412 -8.776e-22)
(0.5047 -0.1264 0)
(1.11 -0.1005 -9.716e-23)
(1.052 -0.363 0)
(0.6034 -0.1868 -8.279e-25)
(1.082 -0.09098 7.889e-23)
(1.108 -0.07838 5.801e-23)
(0.6448 -0.3187 2e-21)
(0.9977 -0.02995 5.451e-21)
(0.7393 -0.2175 0)
(1.103 -0.2893 -3.748e-22)
(1.165 -0.1117 -6.932e-22)
(0.5846 -0.1912 -9.287e-22)
(0.8615 -0.3122 2.609e-21)
(1.344 0.2668 -7.711e-23)
(0.948 0.05258 2.708e-22)
(0.3783 -0.1316 1.5e-22)
(0.9837 -0.1915 0)
(1.125 -0.1917 -5.583e-22)
(1.087 -0.3024 7.657e-22)
(0.9884 -0.0009564 0)
(0.423 -0.1288 4.981e-24)
(1.251 0.3693 -2.827e-23)
(1.177 -0.1057 -2.674e-22)
(1.118 -0.1128 -1.672e-22)
(0.955 -0.0325 0)
(1.086 -0.3032 -7.871e-22)
(1.022 -0.04584 4.523e-21)
(0.4057 -0.1176 3.835e-23)
(0.4229 -0.1282 -5.098e-24)
(1.098 -0.3153 -7.736e-22)
(0.7079 -0.1913 0)
(1.038 0.1483 0)
(0.3715 0.2483 0)
(1.113 -0.1027 0)
(0.9748 -0.04107 2.078e-22)
(1.111 -0.1485 1.239e-22)
(1.123 -0.1462 -1.139e-22)
(0.9536 -0.07068 0)
(0.3911 0.5734 -3.159e-22)
(-0.005095 -0.03506 7.421e-22)
(0.8152 -0.2118 -2.307e-21)
(1.001 1.856e-05 -2.205e-22)
(0.9999 2.355e-06 -3.607e-23)
(0.4767 0.01788 2.448e-24)
(0.9887 0.0295 4.562e-22)
(1.019 0.01337 -1.647e-21)
(0.9264 0.01488 8.823e-22)
(0.8711 -0.03893 2.765e-21)
(0.5716 -0.1866 2.671e-25)
(0.003718 0.01481 8.26e-22)
(1.124 -0.07963 3.46e-24)
(1.013 -0.1145 -8.559e-22)
(1.136 -0.194 -6.218e-22)
(0.7924 -0.05608 -1.454e-20)
(0.9952 0.02036 9.128e-22)
(0.9001 -0.1233 1.761e-21)
(0.4789 -0.1284 -1.208e-22)
(0.9827 -0.00805 -1.278e-20)
(1.345 0.2701 7.933e-23)
(0.7425 -0.2189 0)
(0.6935 -0.01837 4.648e-23)
(0.3852 -0.1357 -8.605e-23)
(1.133 -0.2132 3.213e-22)
(0.8874 -0.2202 0)
(1.014 -0.1134 -6.002e-22)
(1.243 0.3632 -1.912e-23)
(1.003 0.01008 0)
(1.14 -0.2186 -3.744e-22)
(1.131 -0.1289 0)
(1.073 -0.08842 -1.819e-23)
(0.3974 -0.1394 -8.295e-23)
(1.108 -0.2913 2.702e-22)
(1.034 -0.1589 0)
(0.4549 -0.1576 -1.501e-22)
(0.7228 -0.2084 4.24e-22)
(0.9159 -0.2146 1.227e-21)
(1.021 -0.04659 -2.008e-21)
(0.5707 -0.1008 0)
(0.04378 -0.1062 -2.394e-22)
(0.9155 -0.2145 -2.792e-22)
(1.071 -0.1041 3.435e-22)
(0.7396 -0.2175 -1.019e-21)
(0.1987 -0.01608 3.076e-22)
(1.02 0.01288 2.548e-21)
(1.1 -0.1517 -4.148e-23)
(1.123 -0.1459 0)
(1.199 -0.08521 9.109e-22)
(0.4961 -0.1566 -1.685e-22)
(1.053 -0.3628 -5.079e-22)
(1.114 -0.1223 0)
(0.003783 0.02133 -2.319e-22)
(1.141 -0.2226 0)
(1.153 -0.02066 0)
(0.3029 -0.08955 -7.886e-22)
(0.9982 0.0009262 -2.43e-21)
(1.233 0.2028 0)
(1.074 -0.1154 0)
(1.122 -0.2532 0)
(0.9641 -0.2022 0)
(1.126 -0.2721 7.71e-22)
(0.9201 -0.355 -1.131e-22)
(1.027 -0.005829 0)
(1.335 0.3442 -8.734e-22)
(1.1 -0.2688 4.609e-22)
(0.9115 0.1265 -4.076e-22)
(0.8493 -0.212 6.111e-24)
(0.9993 -0.0499 1.359e-21)
(0.9502 -0.1497 6.569e-23)
(0.9876 0.04478 0)
(1.159 -0.1034 -1.436e-21)
(1.182 -0.09829 6.152e-22)
(0.6616 -0.2079 8.615e-22)
(0.5528 -0.4238 0)
(0.7509 -0.2939 0)
(1.13 -0.08516 -7.05e-22)
(1.121 -0.2105 -8.783e-23)
(0.9875 -0.001026 0)
(0.5972 -0.1817 0)
(1.1 -0.1524 0)
(1.126 -0.08496 0)
(1.111 -0.148 0)
(0.9504 -0.2102 -7.381e-22)
(1.139 -0.1755 1.408e-24)
(0.9788 -0.003447 -5.496e-21)
(1.066 -0.3027 -6.22e-22)
(0.9905 -0.001163 0)
(1.033 -0.03333 0)
(1.126 -0.1298 0)
(0.9898 0.008666 -6.943e-21)
(1.007 0.01948 8.826e-23)
(-0.01762 -0.03935 5.887e-22)
(0.8057 -0.2226 -5.126e-22)
(0.996 0.02223 1.007e-21)
(1.134 -0.1555 -1.217e-24)
(0.9519 -0.03321 1.488e-21)
(1.04 -0.1517 -1.591e-22)
(1.067 -0.2032 0)
(1.07 -0.1049 -6.61e-22)
(1.123 -0.2104 0)
(0.9873 -0.01903 1.296e-21)
(0.9042 -0.3747 -2.068e-23)
(1.101 -0.09317 0)
(0.2807 -0.1103 -9.794e-23)
(0.4965 -0.157 3.267e-22)
(1.128 -0.08406 0)
(1.104 -0.1217 -3.037e-22)
(1.045 -0.2505 1.532e-21)
(0.9346 -0.2802 1.422e-21)
(1.121 -0.1799 1.204e-22)
(1.064 -0.08316 -1.98e-23)
(0.7541 -0.4297 -1.051e-21)
(1.136 -0.1937 5.152e-22)
(0.9821 -0.008129 7.827e-21)
(0.8211 -0.1903 4.725e-24)
(1.129 -0.1189 -1.005e-24)
(1.14 -0.17 0)
(0.279 -0.1452 -8.167e-23)
(1.124 -0.2722 -6.878e-22)
(0.9909 -0.001194 -1.974e-21)
(0.9847 0.01156 0)
(1.299 0.4137 3.866e-23)
(1.043 -0.1618 3.264e-22)
(1.098 -0.1153 4.238e-22)
(0.9845 -0.1263 -2.573e-22)
(0.9348 -0.01467 2.593e-21)
(1.026 -0.1613 1.493e-22)
(1.098 -0.08192 5.672e-24)
(1.025 -0.02189 2.611e-21)
(1.122 -0.2527 2.85e-22)
(1.3 0.4136 0)
(1.082 -0.1455 0)
(0.9107 -0.04047 -4.432e-21)
(0.4129 -0.02457 -2.086e-22)
(1.111 -0.02325 -4.687e-22)
(1.206 0.4237 1.472e-22)
(0.6848 -0.1966 5.041e-22)
(1.007 0.01918 5.361e-22)
(0.899 -0.08621 -1.831e-22)
(1.001 1.428e-05 0)
(0.9998 1.882e-06 0)
(0.8997 -0.1587 0)
(0.9123 -0.3535 0)
(1.124 -0.1921 0)
(0.6837 -0.1964 -2.448e-22)
(0.8232 -0.223 1.566e-25)
(0.9885 -0.06618 4.953e-21)
(1.133 -0.2127 -6.011e-22)
(1.119 -0.1358 2.761e-22)
(1.112 -0.147 0)
(0.4019 -0.1369 1.377e-21)
(1.133 -0.1552 3.353e-22)
(0.9093 -0.2177 -1.574e-21)
(0.9993 -0.1987 -6.379e-25)
(1.114 -0.1332 -3.715e-22)
(1.202 -0.08426 0)
(1.115 -0.1283 0)
(0.693 -0.158 5.854e-22)
(0.4408 -0.1404 9.73e-23)
(1.112 -0.1474 0)
(0.9319 0.04862 0)
(0.8934 -0.2178 -2.45e-21)
(0.9629 -0.2029 6.088e-22)
(1.282 0.2677 -5.328e-22)
(0.9805 -0.01511 1.233e-21)
(1.106 -0.02051 2.971e-22)
(0.5929 -0.1753 1.757e-22)
(1.124 -0.0879 0)
(0.7744 -0.1253 7.948e-22)
(1.11 -0.08417 0)
(1.113 -0.09503 1.402e-23)
(1.004 0.004965 -2.586e-22)
(0.9891 0.02881 5.215e-22)
(0.965 -0.007546 -1.575e-21)
(1 -0.1911 3.571e-21)
(0.9812 -0.003139 -1.389e-22)
(0.5897 -0.2198 9.763e-22)
(1.024 -0.02346 -4.003e-21)
(1.092 -0.1192 4.153e-24)
(1.109 -0.08642 0)
(0.9792 -0.03966 -8.671e-21)
(1.005 -0.08913 -1.311e-22)
(1.111 -0.1078 -9.998e-23)
(0.2654 -0.1961 -6.348e-23)
(0.7035 -0.2081 0)
(0.9761 -0.004485 -8.165e-22)
(0.8403 -0.1682 -1.15e-21)
(1.05 -0.1372 0)
(1.113 -0.1389 1.564e-22)
(1.046 -0.2537 1.939e-21)
(0.9964 0.05162 0)
(0.9222 -0.06668 1.679e-23)
(0.98 0.09109 1.21e-23)
(1.089 -0.04598 -1.28e-22)
(0.8174 -0.2127 2.163e-22)
(0.9384 -0.1828 0)
(1.01 -0.01223 3.696e-21)
(0.8894 -0.2533 0)
(0.4208 -0.1462 2.219e-22)
(1.121 -0.2803 -2.995e-22)
(1.112 -0.1015 0)
(1.093 -0.08303 1.136e-23)
(0.8938 -0.2544 -1.95e-21)
(1.107 -0.07451 4.395e-23)
(0.9302 0.0468 5.212e-22)
(0.9977 -0.04884 -3.706e-22)
(1.047 -0.07948 -2.849e-23)
(1.003 0.009674 -2.994e-22)
(0.947 -0.2085 0)
(0.4085 -0.1178 0)
(0.9842 0.09053 0)
(1.131 -0.1351 -2.644e-22)
(0.6513 -0.2011 0)
(1.126 -0.1075 -5.252e-23)
(0.9999 0.001317 -4.929e-21)
(1.119 -0.1129 7.473e-23)
(0.9339 -0.3954 0)
(1.123 -0.1602 -2.487e-22)
(1.029 -0.1933 0)
(0.6194 -0.1892 0)
(1.026 -0.3623 -5.036e-22)
(0.9971 -0.1996 -1.322e-21)
(0.8059 -0.2208 6.562e-23)
(1.114 -0.209 -1.735e-22)
(1.086 -0.1293 1.822e-21)
(1.007 -0.3933 5.915e-22)
(0.5851 -0.1911 6.216e-22)
(0.5004 -0.1712 4.003e-21)
(0.7558 -0.2203 0)
(0.999 0.001046 0)
(0.7222 -0.2087 0)
(0.9554 0.1479 5.829e-22)
(1.083 0.2623 -2.66e-22)
(0.9829 -0.183 0)
(1.2 -0.08542 0)
(1.01 -0.1336 -6.343e-22)
(1.005 -4.102e-05 4.773e-21)
(0.7473 -0.2193 0)
(0.4379 -0.1406 0)
(0.866 -0.1341 -3.055e-21)
(1.211 -0.03872 2.384e-23)
(1.004 0.004872 0)
(1.137 -0.1687 9.983e-23)
(0.9392 -0.2116 -1.361e-21)
(0.9527 -0.03629 -1.483e-21)
(0.9866 -0.01804 1.339e-21)
(0.9948 -0.001171 -1.922e-20)
(1.113 -0.09246 0)
(0.9445 -0.0739 5.961e-22)
(0.9179 -0.3603 2.32e-22)
(0.9616 0.0479 -1.266e-21)
(1.085 -0.08494 -1.874e-24)
(0.98 0.01186 -1.714e-22)
(0.6897 -0.4571 -2.803e-22)
(0.9621 -0.008217 -6.609e-22)
(0.4788 -0.1271 -1.15e-22)
(0.8458 -0.2195 0)
(1.121 -0.1358 5.793e-26)
(1.131 -0.1348 -8.85e-23)
(1.027 -0.1848 3.033e-21)
(0.8923 0.05447 8.532e-22)
(0.5561 -0.1812 -3.717e-22)
(1.11 -0.1317 -2.224e-22)
(1.212 -0.07255 1.604e-21)
(0.5808 -0.1869 0)
(1.08 -0.1258 2.881e-21)
(1.126 -0.1023 0)
(1.17 -0.1046 8.205e-22)
(0.9138 -0.1951 0)
(0.4255 0.2198 -1.633e-21)
(1.17 -0.1054 0)
(0.9914 -0.0004069 4.351e-21)
(1.012 0.03744 -1.654e-23)
(1.025 -0.1862 9.575e-22)
(0.8445 -0.2208 1.735e-21)
(1 -7.582e-05 0)
(0.74 -0.2124 0)
(0.9753 -0.1438 0)
(1.095 -0.1095 2.507e-22)
(1.042 -0.1611 0)
(1.008 -0.1013 0)
(1.008 0.0004812 1.181e-20)
(0.4981 -0.3702 0)
(0.9776 -0.1415 0)
(0.493 -0.1704 -5.552e-22)
(1.116 -0.1309 0)
(0.8368 -0.4583 3.017e-21)
(0.6717 -0.4529 4.799e-22)
(1.092 -0.1626 3.612e-22)
(1.123 -0.2724 -6.092e-22)
(0.9289 -0.3865 -3.869e-22)
(1.21 -0.03825 -5.038e-22)
(1.107 -0.1313 -1.338e-22)
(1.018 0.004836 0)
(1.089 -0.09176 -8.717e-23)
(0.9619 0.02706 0)
(1.285 0.4099 2.512e-23)
(1.123 -0.1118 1.355e-22)
(1.134 -0.1324 5.516e-22)
(1.288 0.2906 -4.852e-22)
(0.004068 0.01934 -6.668e-22)
(0.7239 -0.2165 4.337e-22)
(0.4187 0.06013 4.098e-21)
(1.077 -0.08139 -9.754e-22)
(1.007 0.5113 -2.884e-22)
(0.9842 -0.002277 0)
(0.8404 -0.4557 -3.028e-21)
(1.013 0.03714 1.843e-24)
(0.4886 -0.1582 -2.17e-22)
(0.8176 -0.2111 -7.837e-22)
(-0.005591 -0.02636 0)
(-0.01644 -0.07698 2.715e-22)
(0.2019 -0.06817 1.206e-22)
(1 -0.0003998 0)
(0.8938 -0.218 7.737e-23)
(1.276 0.0273 0)
(0.9853 0.01162 4.643e-23)
(0.6208 -0.1803 4.578e-22)
(1.031 -0.3662 2.602e-22)
(0.6605 -0.2062 1.569e-22)
(1.13 -0.16 0)
(0.8456 -0.2197 0)
(1.121 -0.1358 2.516e-22)
(0.7409 -0.2125 0)
(0.8988 -0.1721 -4.61e-22)
(0.993 -0.0001795 -4.356e-21)
(0.4565 -0.1162 0)
(0.2452 -0.08769 -5.55e-22)
(1.002 -0.3997 -7.518e-22)
(1.101 -0.107 2.515e-23)
(0.3807 -0.1319 0)
(1.005 -0.01543 0)
(1.127 -0.1212 -1.32e-22)
(0.8754 -0.04009 3.413e-21)
(0.9148 -0.1941 0)
(1.005 -0.01414 1.531e-21)
(1.079 -0.08803 0)
(1.268 0.5548 0)
(0.4432 -0.1543 1.114e-22)
(0.9996 -1.071e-06 -1.148e-21)
(1.024 -0.1868 5.963e-22)
(1.07 -0.1202 1.14e-21)
(0.3462 -0.1226 -4.474e-23)
(0.9076 -0.3988 5.337e-22)
(1.33 0.3375 -2.391e-22)
(0.8706 -0.194 0)
(0.956 0.01756 1.379e-22)
(0.5321 -0.1799 0)
(0.9973 -0.3616 -6.409e-22)
(1 -7.341e-05 0)
(1.046 -0.2524 -2.84e-21)
(1.078 -0.1313 3.044e-21)
(1.103 -0.09364 0)
(1.111 -0.0841 -3.082e-24)
(0.8417 -0.2206 -1.91e-21)
(0.6071 -0.198 1.021e-22)
(0.8177 -0.2121 0)
(1.164 -0.07006 -2.315e-21)
(1.014 -0.3869 9.536e-22)
(0.6289 -0.2002 2.799e-22)
(0.7489 -0.2193 0)
(1.021 -0.005755 5.981e-22)
(1.095 -0.04824 5.938e-23)
(0.793 -0.2217 0)
(1.122 -0.1689 -3.062e-22)
(1.129 -0.1208 1.201e-22)
(0.5217 -0.165 0)
(1 0.002716 0)
(0.9997 0.003508 0)
(0.9158 0.1225 -2.055e-23)
(0.9075 -0.218 2.784e-21)
(0.9809 0.5428 0)
(0.9834 0.01386 2.184e-21)
(1.004 0.0007324 -2.465e-22)
(0.9973 -0.3495 0)
(0.975 -0.4185 0)
(0.6423 -0.1996 9.416e-22)
(0.9282 -0.3875 4.927e-22)
(0.5488 -0.1838 2.712e-22)
(0.593 -0.1943 -2.826e-21)
(1.107 -0.2375 0)
(1.018 0.03994 0)
(1.002 -0.0004284 2.75e-21)
(0.4643 -0.1609 -1.294e-22)
(0.7648 -0.2163 3.985e-22)
(1.127 -0.2542 0)
(1.002 -0.0006833 0)
(1.174 -0.02232 0)
(1.128 -0.113 0)
(0.831 -0.2233 0)
(0.9763 -0.004371 1.689e-21)
(1.084 -0.1343 1.232e-21)
(0.9828 0.01335 1.146e-21)
(0.6528 -0.201 0)
(0.4134 -0.1094 6.152e-23)
(0.9094 -0.1867 -2.511e-21)
(0.9967 7.105e-05 2.939e-22)
(0.6104 -0.1985 1.163e-21)
(0.8503 -0.212 -8.041e-24)
(0.8047 -0.4191 -1.597e-22)
(1.008 0.0004569 -1.171e-20)
(1.14 -0.1746 0)
(0.3855 -0.136 -1.693e-22)
(0.9949 -0.001419 1.867e-20)
(1.131 -0.1354 1.894e-22)
(0.9895 0.02163 1.189e-22)
(1.117 -0.08532 -2.951e-24)
(1.094 -0.1405 0)
(0.9899 0.008267 6.696e-21)
(0.8861 -0.2173 1.951e-21)
(1.129 -0.1509 3.794e-22)
(0.2259 -0.1342 1.056e-24)
(1.076 -0.1693 2.792e-22)
(1.078 -0.1547 -8.544e-22)
(1.117 -0.1291 0)
(1.114 -0.1385 0)
(0.4311 -0.285 -2.119e-21)
(1.117 -0.1031 -2.345e-23)
(1.185 0.5803 -6.713e-24)
(1.13 -0.05453 0)
(0.4521 -0.1477 -1.572e-22)
(1.155 -0.1132 0)
(1.087 -0.0981 0)
(1.003 -0.0006992 -6.554e-21)
(1.133 -0.2377 -9.167e-22)
(0.9875 0.01004 3.974e-21)
(0.4107 -0.1154 0)
(1.034 0.007856 2.448e-21)
(1.078 -0.156 2.467e-23)
(1.005 -4.945e-05 0)
(0.9954 0.02203 -1.857e-21)
(1.113 -0.1001 0)
(1.006 -0.3935 2.984e-22)
(0.9115 -0.2165 0)
(1.006 9.918e-05 5.463e-21)
(1.004 -0.002671 -2.528e-21)
(0.4569 -0.1579 8.025e-25)
(1.304 0.1656 1.404e-21)
(0.9109 -0.2139 2.149e-21)
(1.094 -0.09595 -3.63e-23)
(0.5612 -0.1491 0)
(0.9168 -0.3591 -2.509e-22)
(0.8402 -0.2194 0)
(0.9349 -0.3966 1.247e-22)
(1.112 -0.1468 -2.114e-22)
(0.7386 -0.2186 5.158e-22)
(1.178 -0.09794 -1.879e-21)
(1.006 7.503e-05 2.469e-21)
(1.224 -0.06241 7.626e-25)
(1.105 -0.1491 0)
(1.108 -0.1756 0)
(1.054 -0.13 -4.359e-22)
(1.001 -0.02837 -9.029e-21)
(1.004 0.0006947 2.321e-22)
(1.082 -0.1446 0)
(0.8438 -0.469 -4.075e-21)
(1.107 -0.1315 5.743e-23)
(0.3642 -0.1287 -4.587e-22)
(1.034 0.009452 -3.58e-21)
(1.003 0.000522 -5.252e-22)
(0.691 -0.212 -9.559e-22)
(1.168 -0.1145 -1.44e-22)
(0.928 0.01537 -3.944e-22)
(1.125 -0.1359 0)
(1.068 -0.1535 8.168e-22)
(1.014 -0.02582 -1.15e-21)
(0.7086 -0.2154 -1.109e-24)
(1.108 -0.2554 2.139e-22)
(1.106 -0.1486 -3.455e-22)
(0.9161 -0.1949 0)
(0.0788 -0.02745 0)
(0.3989 -0.1395 0)
(0.5819 -0.1869 -8.335e-23)
(0.5561 -0.1816 3.411e-22)
(0.8055 -0.2224 0)
(1.088 -0.1645 4.16e-22)
(1.095 -0.1361 -1.238e-21)
(1.075 -0.1692 7.393e-22)
(0.9457 -0.0235 -2.407e-21)
(1.163 -0.1165 -5.622e-22)
(0.3597 -0.124 0)
(0.9467 -0.208 -2.473e-24)
(1.005 -0.001591 -1.497e-20)
(1.139 -0.1756 -7.763e-22)
(0.9852 -0.2695 -2.254e-21)
(0.6863 -0.09481 3.012e-21)
(0.9996 9.741e-06 3.25e-22)
(1.005 -0.001718 1.271e-20)
(-0.03592 -0.05503 9.469e-23)
(1.077 -0.0803 3.836e-22)
(1.137 -0.2111 0)
(1.11 -0.1534 4.963e-23)
(0.82 -0.4468 1.301e-21)
(0.8221 -0.1909 -3.093e-21)
(1.141 -0.02587 -1.982e-21)
(1.08 -0.08848 1.844e-23)
(0.7742 -0.07043 0)
(1.116 -0.2912 0)
(1.017 0.004449 8.079e-21)
(1.008 -0.0005626 1.797e-20)
(1.241 0.2316 1.498e-22)
(0.9624 0.1463 0)
(1.004 -0.1919 -2.452e-21)
(0.6924 -0.1022 -5.56e-21)
(0.9917 -0.4077 3.418e-21)
(0.5891 -0.164 6.2e-22)
(0.9976 -0.4034 8.724e-22)
(0.9041 -0.1211 0)
(0.7799 -0.1249 0)
(0.9966 0.0001412 0)
(1.092 -0.07652 7.637e-23)
(1.01 -0.1011 0)
(1.129 -0.2577 -6.864e-22)
(-0.01182 -0.04369 -1.761e-22)
(1.139 -0.1724 2.792e-22)
(1.159 -0.1024 8.831e-22)
(0.7046 -0.2079 0)
(0.9966 7.404e-05 -2.705e-22)
(1.129 -0.121 -1.553e-22)
(1.113 -0.09915 4.17e-23)
(0.4381 -0.1524 -6.601e-22)
(0.6819 -0.1227 -5.477e-22)
(0.9348 -0.1986 1.379e-24)
(1.111 -0.147 0)
(1.048 0.8157 4.189e-23)
(0.8048 -0.2209 -9.842e-22)
(0.8624 -0.451 0)
(0.6438 -0.1634 9.234e-22)
(1.126 -0.2719 0)
(1.128 -0.1205 7.436e-23)
(1.129 -0.1191 7.095e-23)
(0.7445 -0.2057 5.777e-22)
(1.085 -0.1902 3.368e-22)
(0.1088 -0.004358 -7.947e-23)
(0.9841 -0.2716 2.026e-21)
(0.9475 0.05071 -2.711e-22)
(1.132 -0.2499 2.464e-22)
(0.965 -0.403 4.197e-22)
(1.124 -0.1165 0)
(1.011 6.329e-05 1.788e-20)
(0.3858 -0.1202 -5.476e-23)
(0.6967 -0.1577 6.377e-22)
(0.6423 -0.1992 2.871e-22)
(1.002 0.0005177 3.695e-22)
(0.3627 -0.1289 6.46e-22)
(0.7566 -0.2203 6.818e-25)
(1.085 -0.132 8.049e-22)
(0.9958 0.0001631 -1.421e-21)
(1.074 -0.1697 0)
(0.4772 -0.1581 -5.961e-23)
(1.013 -0.1928 2.64e-21)
(1.151 -0.1277 2.064e-22)
(0.9958 0.0001383 -1.372e-21)
(0.6614 -0.2006 4.14e-22)
(0.3584 -0.1245 0)
(0.8141 -0.222 0)
(0.9719 -0.2011 -7.514e-22)
(0.9874 0.0313 4.315e-22)
(1.119 -0.1352 1.237e-22)
(0.2756 -0.1937 3.307e-21)
(1.025 0.002487 0)
(1.135 -0.2039 0)
(1.1 -0.2226 5.126e-22)
(1.089 -0.164 -8.098e-22)
(0.7237 -0.2163 3.929e-22)
(1.043 -0.2489 1.455e-21)
(1.139 -0.1726 -2.64e-22)
(1.062 -0.135 7.288e-22)
(0.6642 -0.2081 7.962e-22)
(0.9992 1.401e-05 -8.663e-22)
(0.6603 -0.2005 -5.274e-22)
(0.6574 -0.1826 0)
(1.038 -0.07822 0)
(1.127 -0.1621 2.226e-22)
(1.08 -0.06757 0)
(0.6213 -0.1797 0)
(0.6092 -0.1985 2.371e-22)
(0.9994 -3.135e-06 1.136e-21)
(0.6611 -0.2061 0)
(0.7081 -0.2155 -7.022e-26)
(1.111 -0.1339 5.036e-23)
(0.07157 -0.139 2.484e-22)
(1.111 -0.1333 -9.997e-23)
(0.4438 -0.1545 -5.178e-23)
(0.9993 -0.1975 -6.655e-22)
(0.4876 -0.1505 0)
(1.105 -0.2454 1.279e-22)
(1 -0.0003688 0)
(0.04844 -0.01948 3.742e-22)
(0.7738 -0.2208 4.449e-22)
(1.076 -0.169 0)
(0.467 -0.1628 0)
(0.5981 -0.1896 0)
(0.5627 -0.1873 3.025e-22)
(0.6618 -0.2074 -1.272e-22)
(1.107 -0.09246 -1.488e-23)
(1.002 -0.0003802 -4.671e-21)
(0.6837 -0.1451 0)
(1.128 -0.1367 1.615e-22)
(0.9965 0.0001685 -1.014e-22)
(0.6839 -0.2113 9.955e-22)
(1.285 0.4079 -1.345e-23)
(1.14 -0.17 -1.961e-22)
(1.038 -0.3562 -4.125e-22)
(1.006 0.0002029 -1.606e-21)
(0.8407 -0.2191 0)
(0.423 -0.1308 8.279e-23)
(1.018 0.004891 0)
(1.007 0.0002076 -1.415e-20)
(1.052 -0.1318 4.437e-22)
(0.6976 -0.1913 -8.294e-22)
(0.562 -0.1499 -2.919e-22)
(0.549 -0.184 0)
(0.6485 -0.2 0)
(0.8677 -0.03022 2.018e-23)
(1.131 -0.1457 1.821e-22)
(0.8244 -0.2242 2.207e-21)
(1.005 -0.001668 1.593e-20)
(0.701 -0.2112 0)
(0.5771 -0.1885 0)
(1.097 -0.08 1.061e-23)
(1.072 -0.08432 1.519e-23)
(0.86 -0.3073 -2.997e-23)
(1 0.0007959 -6.886e-22)
(1.006 -0.01465 0)
(0.9755 -0.01528 -1.485e-21)
(1.192 0.005609 -1.323e-21)
(1.005 -0.001539 -1.432e-20)
(0.9014 -0.1149 0)
(0.7898 -0.4753 0)
(1.134 -0.1416 -1.086e-22)
(1.078 -0.1481 1.348e-23)
(0.9912 -0.003673 2.681e-22)
(0.4531 -0.1282 9.157e-23)
(1.133 -0.135 -1.882e-22)
(1.002 0.01207 4.077e-22)
(1.114 -0.1329 3.265e-22)
(1 -0.0001018 3.67e-21)
(0.8833 -0.4344 3.347e-22)
(0.2363 -0.3096 1.11e-21)
(1.107 -0.1547 -5.003e-22)
(1.136 -0.1089 0)
(1.069 -0.04409 1.288e-22)
(0.9937 -0.02806 -5.978e-21)
(0.8324 -0.2211 9.167e-22)
(0.9184 -0.2095 -2.731e-21)
(1.081 -0.08816 0)
(0.3447 -0.1279 7.49e-23)
(1.108 -0.1466 0)
(0.6836 0.8876 2.951e-22)
(1.082 -0.06419 0)
(1.104 -0.1989 1.008e-21)
(0.943 -0.3363 7.184e-22)
(0.6921 -0.1304 5.652e-22)
(1.001 0.01475 -2.447e-21)
(0.9935 -0.1661 3.569e-21)
(1.074 -0.343 5.464e-22)
(1.34 0.2296 0)
(0.3598 -0.1244 0)
(1.02 -0.1684 -1.354e-21)
(1.001 0.0008004 0)
(0.8652 -0.08867 0)
(0.464 -0.1606 2.53e-22)
(1.076 -0.2475 -1.638e-21)
(0.9979 -0.0609 -7.509e-21)
(1.303 0.08909 0)
(0.2515 -0.3087 0)
(1.329 0.1441 -1.311e-21)
(0.8314 0.05841 -2.961e-21)
(0.9019 -0.2188 1.746e-21)
(0.4743 -0.165 0)
(0.6879 -0.1448 -4.42e-22)
(0.9399 -0.07518 4.239e-23)
(1.011 0.04692 0)
(1.139 -0.1634 -5.794e-22)
(1.004 0.000495 -1.387e-21)
(0.9969 6.636e-05 -1.993e-21)
(1.069 -0.1644 4.853e-22)
(1.037 0.01749 -6.816e-21)
(1.121 -0.1461 6.123e-22)
(0.6216 -0.07505 1.8e-21)
(0.3577 0.2056 -8.215e-22)
(1.118 -0.1142 2.835e-22)
(0.9691 -0.05278 3.655e-21)
(1.297 0.4413 2.869e-22)
(1.131 -0.2542 -6.176e-22)
(1.01 -0.01185 0)
(0.7508 -0.1529 0)
(0.6105 -0.196 -1.356e-22)
(0.9723 -0.05096 -5.758e-21)
(0.9108 -0.21 -2.283e-21)
(0.3227 -0.1268 4.45e-21)
(0.4098 -0.0905 -7.163e-22)
(1.13 -0.2255 0)
(0.3482 -0.3467 5.999e-22)
(0.9733 -0.1897 -1.554e-24)
(0.5414 -0.1823 0)
(0.9876 0.0002618 7.155e-21)
(1.135 -0.1314 -6.835e-22)
(1.129 -0.2579 0)
(0.9821 -0.01507 -4.049e-22)
(0.8752 -0.2182 0)
(0.7834 -0.2213 0)
(0.7237 -0.1922 -7.134e-22)
(0.9999 -8.249e-05 0)
(0.9506 -0.01035 8.047e-21)
(0.7887 -0.157 0)
(0.777 -0.02908 0)
(1.023 -0.3331 0)
(0.3235 -0.1244 0)
(0.7698 -0.215 -5.723e-22)
(0.9454 -0.3993 -1.364e-22)
(1.133 -0.2459 0)
(0.3689 -0.1312 0)
(1.197 -0.091 0)
(0.9971 4.527e-05 -1.037e-21)
(0.8233 -0.4809 2.323e-21)
(1.15 0.1479 7.752e-22)
(1.005 0.000497 -4.338e-22)
(0.9475 -0.3596 0)
(0.2615 -0.09603 -8.245e-23)
(0.8859 -0.1785 1.042e-21)
(1.303 0.06667 -1.431e-21)
(1.125 -0.07331 0)
(1.126 -0.1731 -3.745e-22)
(0.3423 -0.1218 -2.837e-22)
(0.579 -0.03448 0)
(1.115 -0.1149 -3.286e-22)
(1.017 0.04034 6.715e-22)
(0.995 0.008051 0)
(1.132 -0.2137 -3.443e-22)
(0.8921 -0.3884 -7.41e-22)
(0.6217 -0.1997 -7.691e-22)
(0.9128 -0.2135 2.201e-21)
(0.3491 0.393 0)
(0.9867 -0.4109 -1.462e-21)
(0.9407 -0.0111 0)
(1.064 -0.02674 0)
(0.9881 -0.4113 1.467e-21)
(0.9838 -0.07356 2.15e-21)
(1.175 -0.07138 -2.508e-21)
(1.011 0.001455 -8.862e-21)
(0.6153 -0.1907 0)
(0.1801 -0.1369 -1.344e-22)
(1.009 -0.1884 0)
(0.7978 -0.2224 9.135e-22)
(0.7596 -0.2159 -3.168e-22)
(0.9914 0.005671 -1.196e-20)
(0.9683 0.007893 1.79e-21)
(0.4808 -0.1676 0)
(1.026 -0.2131 0)
(0.5116 -0.1731 -2.069e-22)
(1.129 -0.1476 0)
(0.518 -0.1773 0)
(0.5731 -0.1715 0)
(1.106 -0.1282 0)
(1.261 -0.008323 1.691e-22)
(1.18 -0.1037 6.394e-22)
(0.6422 -0.09398 7.693e-22)
(1.11 -0.1433 -3.192e-22)
(1.088 -0.08133 8.186e-24)
(0.7367 -0.2179 0)
(1.131 -0.1376 -3.013e-22)
(0.6156 -0.1824 0)
(0.4111 0.5774 0)
(0.5726 -0.1902 -1.739e-23)
(0.1882 -0.1492 -5.192e-23)
(0.2858 -0.1025 -1.846e-22)
(0.7561 -0.2159 0)
(1.011 0.0001044 -4.646e-21)
(1.009 -0.003345 6.505e-21)
(0.6691 -0.2004 -4.118e-22)
(0.5468 -0.176 0)
(1.112 -0.1786 0)
(1.001 1.737e-05 5.178e-21)
(0.9089 -0.4065 1.126e-21)
(0.8407 -0.2196 0)
(1.114 -0.09514 2.289e-22)
(0.5491 -0.1848 -3.727e-22)
(1.087 -0.1397 5.835e-22)
(0.6901 -0.212 1.035e-24)
(1.103 0.4135 -5.719e-23)
(0.9999 0.001299 4.568e-21)
(1.088 -0.1868 -6.604e-22)
(1.109 -0.07504 -2.348e-23)
(1.001 -0.3896 2.248e-21)
(1.065 -0.0822 -3.524e-24)
(0.4591 -0.151 0)
(0.8691 -0.2736 -1.463e-21)
(0.9778 -0.1691 0)
(1.027 -0.1846 -1.326e-21)
(1.111 -0.1012 -1.098e-22)
(1.126 -0.09395 -1.105e-23)
(0.6113 -0.1676 2.835e-22)
(0.9227 -0.4127 -9.03e-23)
(1.129 -0.1291 3.751e-22)
(0.5807 -0.1902 4.784e-22)
(0.9771 -0.4234 1.739e-21)
(0.9852 -0.01968 0)
(0.5394 -0.2011 3.384e-22)
(0.3458 -0.1236 -4.804e-23)
(0.6585 -0.1821 4.851e-23)
(1.084 -0.1655 -9.623e-22)
(0.314 -0.3302 -2.612e-21)
(1.005 0.02612 -5.988e-22)
(0.5113 -0.132 -3.986e-21)
(0.6693 -0.1278 0)
(0.9959 -0.0005003 5.704e-21)
(1 -4.149e-05 0)
(1.136 -0.1326 0)
(0.9118 -0.2158 -3.254e-21)
(0.2488 -0.09212 -1.734e-22)
(0.3336 -0.1252 -3.459e-23)
(1.139 -0.1632 4.077e-22)
(1.032 -0.3805 0)
(0.6158 -0.1994 -1.102e-21)
(1.094 -0.1827 0)
(1.11 -0.1462 -1.861e-22)
(0.9977 -0.0337 0)
(0.6273 -0.2018 -1.957e-21)
(0.4934 -0.09261 0)
(0.6258 -0.2014 -1.794e-22)
(1.115 -0.2248 7.498e-22)
(0.3496 -0.1232 0)
(0.6206 -0.197 -7.199e-22)
(0.992 -0.002282 2.644e-21)
(0.6592 -0.08706 -5.305e-22)
(0.4792 -0.1613 -1.695e-22)
(1 -0.001405 -2.849e-20)
(1.093 -0.1626 6.321e-22)
(0.9952 -0.0004921 -1.147e-21)
(0.9891 -0.003735 1.474e-20)
(1.135 -0.1518 0)
(1.04 -0.164 6.124e-22)
(0.9259 -0.09874 6.18e-21)
(0.9994 -0.003394 -3.49e-21)
(1.114 -0.1326 3.422e-22)
(1.006 0.008835 0)
(1.281 0.433 -1.174e-22)
(1.036 -0.1496 -1.298e-21)
(0.7348 -0.1427 0)
(1.128 -0.1292 -1.14e-22)
(1.135 -0.22 1.221e-21)
(1.133 -0.1634 5.395e-22)
(0.697 -0.2122 -4.687e-23)
(1.13 -0.124 0)
(0.9981 -0.002949 1.519e-20)
(1.025 -0.05035 -4.006e-22)
(1.015 -0.1861 0)
(1.141 -0.2105 6.308e-22)
(0.5551 -0.186 0)
(0.6454 -0.2049 0)
(0.9952 -0.0726 -5.152e-23)
(0.6318 -0.2027 1.33e-21)
(0.4005 -0.128 -4.135e-21)
(1.075 -0.1699 -1.605e-21)
(1.108 -0.304 0)
(1.276 0.0151 1.85e-21)
(1.113 -0.116 0)
(1.063 -0.1311 -1.207e-21)
(0.8798 0.2291 0)
(0.7063 -0.15 -4.246e-22)
(0.9689 -0.01512 2.982e-21)
(0.9926 -0.199 -3.257e-21)
(0.3915 -0.1256 -6.689e-23)
(1.109 -0.1898 1.277e-21)
(0.9962 0.000333 0)
(0.7167 -0.4676 1.509e-21)
(0.8211 -0.2155 4.578e-22)
(1.124 -0.1068 -1.384e-23)
(1.105 -0.2991 0)
(1.116 -0.1467 6.223e-23)
(1.119 -0.1394 2.5e-25)
(0.9412 -0.2034 -3.041e-21)
(0.8456 -0.2057 0)
(1.124 -0.107 1.359e-23)
(0.4504 -0.1532 0)
(1.104 -0.299 0)
(0.3421 -0.1286 -7.138e-23)
(0.9965 -0.001033 -1.377e-21)
(1.126 -0.08766 0)
(1.009 -0.1925 0)
(0.9898 -0.02516 1.399e-21)
(0.9695 -0.2055 -2.322e-21)
(1.146 -0.1229 -2.096e-21)
(0.9999 1.603e-06 -1.224e-21)
(1.108 -0.2334 0)
(0.3938 -0.1311 -2.527e-23)
(1.014 -0.06412 0)
(0.8956 0.2308 -7.941e-22)
(0.9845 -0.1839 1.26e-21)
(0.4464 -0.0286 0)
(1.079 -0.1588 0)
(1.001 2.339e-05 0)
(0.9105 -0.218 4.511e-22)
(0.7575 -0.2201 -8.268e-22)
(1.018 -0.002404 -2.514e-22)
(0.9416 0.2017 -4.938e-22)
(1.038 0.03107 0)
(0.8314 -0.2196 1.909e-22)
(0.8437 -0.2222 0)
(1.133 -0.1927 5.127e-22)
(0.979 -0.04856 4.775e-21)
(0.363 -0.1258 -3.036e-23)
(0.304 -0.1094 4.382e-22)
(1.134 -0.2379 7.731e-22)
(1.138 -0.1761 -5.239e-22)
(0.7212 -0.2067 6.677e-22)
(0.945 -0.07394 -9.378e-24)
(0.9958 0.0003871 1.426e-21)
(1.122 -0.1153 1.19e-22)
(1.008 0.0113 -1.557e-21)
(0.7306 -0.2155 0)
(0.8495 -0.4051 0)
(1.036 -0.1861 -9.305e-22)
(1.106 -0.2985 1.719e-21)
(0.3357 -0.1315 1.821e-23)
(0.9962 -0.1652 0)
(0.9988 0.005351 -7.893e-23)
(0.2299 -0.0801 0)
(0.6679 -0.2095 0)
(0.7453 -0.2176 0)
(1.124 -0.09933 -5.866e-23)
(1.335 0.3441 -5.474e-22)
(0.8163 -0.207 -1.543e-21)
(0.693 -0.1265 0)
(1.064 -0.08263 0)
(1.137 -0.1552 1.661e-22)
(0.8949 0.00124 1.164e-21)
(0.4532 -0.03244 -3.029e-22)
(0.5385 -0.1758 -1.878e-22)
(1.108 -0.08175 -3.901e-23)
(1.121 -0.2339 1.243e-21)
(1.137 -0.1683 4.59e-23)
(0.7584 -0.4521 0)
(0.3924 -0.04603 1.728e-22)
(0.5024 -0.1716 -5.524e-23)
(1.142 -0.1894 -2.655e-22)
(0.6469 -0.2046 0)
(1.139 -0.1073 1.404e-21)
(1.12 -0.1354 -2.883e-22)
(1.112 -0.1125 -1.979e-24)
(0.8777 -0.1804 0)
(0.3372 -0.1321 0)
(1.079 -0.09624 1.198e-21)
(1.137 -0.2382 -5.736e-22)
(1.069 -0.1193 -5.854e-22)
(1.129 -0.1887 -1.699e-21)
(0.9998 1.757e-06 -1.112e-21)
(1.007 0.0005892 0)
(1.063 -0.1538 1.077e-21)
(0.9245 -0.0637 0)
(0.6299 -0.195 6.063e-23)
(0.9225 -0.02434 -6.435e-21)
(0.5736 -0.1239 0)
(0.5196 -0.1778 -3.214e-22)
(0.9935 0.009326 -1.537e-20)
(1.327 0.1878 3.418e-22)
(1.136 -0.1514 2.576e-22)
(1.113 -0.1219 1.609e-22)
(-0.01187 -0.002978 9.219e-23)
(1.067 -0.2887 2.272e-22)
(0.5491 -0.1816 -1.097e-22)
(0.1036 -0.03506 -1.909e-22)
(0.7533 -0.1537 8.937e-22)
(0.5133 -0.1754 -2.32e-21)
(0.7013 -0.2027 -1.001e-21)
(1.134 -0.1401 -3.146e-23)
(1.108 -0.1131 -2.15e-21)
(1.135 -0.1621 0)
(1.081 -0.09283 0)
(0.9433 -0.3837 0)
(1.061 -0.1748 2.454e-21)
(1.061 -0.07433 -6.827e-22)
(0.7775 -0.1079 0)
(1.131 -0.08471 0)
(0.7298 -0.2172 0)
(1.11 -0.2606 -9.147e-22)
(1.121 -0.0865 0)
(0.5832 -0.1645 0)
(0.3209 -0.1158 0)
(0.5752 -0.1773 1.809e-22)
(1.097 -0.1564 3.754e-22)
(0.5312 -0.1524 0)
(1.081 0.3108 2.308e-22)
(1.131 -0.03714 8.807e-22)
(1.135 -0.1782 1.839e-22)
(0.3436 -0.1295 4.118e-21)
(1.021 0.07104 3.021e-22)
(1.254 0.03968 0)
(0.7123 -0.2119 0)
(0.5681 -0.1875 -1.951e-22)
(0.6536 -0.2048 -2.646e-22)