/*--------------------------------*- C++ -*----------------------------------*\
  =========                 |
  \\      /  F ield         | OpenFOAM: The Open Source CFD Toolbox
   \\    /   O peration     | Website:  https://openfoam.org
    \\  /    A nd           | Version:  8
     \\/     M anipulation  |
\*---------------------------------------------------------------------------*/
FoamFile
{
    version     2.0;
    format      ascii;
    class       volScalarField;
    location    "45";
    object      k;
}
// * * * * * * * * * * * * * * * * * * * * * * * * * * * * * * * * * * * * * //

dimensions      [0 2 -2 0 0 0 0];

internalField   nonuniform List<scalar> 
127143
(
9.81e-15
1.137e-13
8.492e-13
4.337e-12
2.644e-12
4.579e-12
5.73e-11
1.395e-11
6.655e-12
4.436e-12
1.394e-10
1.741e-11
5.306e-12
7.48e-12
2.41e-05
1.517e-10
4.285e-12
0.07034
0.03415
1.745e-08
0.001347
1.066e-07
0.000154
5.698e-06
9.616e-08
1.279e-07
2.698e-09
2.778e-09
1.135e-07
0.07412
1.977e-06
1.233e-07
3.451e-08
3.181e-07
0.0001508
3.381e-08
0.002615
0.007737
1.139e-05
7.179e-08
0.03442
0.0001532
0.0001527
3.983e-11
0.06912
3.927e-07
1.163e-07
0.009801
7.703e-06
9.109e-06
3.544e-10
0.0001493
0.000237
0.0001543
0.0001395
2.831e-06
0.0001394
0.0001645
0.0001471
0.0001542
0.0001529
0.01651
4.531e-05
0.0001482
5.317e-07
0.0001588
0.0001511
3.962e-05
4.01e-05
0.0002379
4.094e-06
5.919e-09
0.03602
0.000147
0.0001458
5.919e-09
0.0001473
0.00235
2.808e-06
0.000149
9.109e-08
1.659e-08
2.585e-06
1.589e-07
0.02713
0.003459
1.905e-05
1.531e-08
0.0001575
4.056e-05
0.0001468
0.00117
7.876e-05
0.001359
4.095e-05
0.0001723
0.0001531
7.357e-07
0.00396
0.000151
0.0001489
8.889e-06
7.873e-06
0.0001112
0.003801
0.003723
3.49e-05
0.0002389
0.0001677
0.0001424
3.159e-05
1.373e-08
0.0002994
0.0001683
0.0001455
0.0001495
0.0001474
0.0001459
0.0001472
8.893e-09
0.0001425
4.413e-06
7.074e-05
0.0001623
1.069e-07
3.344e-08
0.01001
0.0001485
3.676e-05
2.341e-06
0.0007032
6.684e-05
5.934e-05
0.002478
1.379e-10
0.0007762
0.0001556
0.001911
3.093e-07
0.0001534
0.0001545
0.0001467
0.0007208
0.002145
0.0002539
0.000154
3.905e-07
0.0001483
5.733e-05
3.244e-06
8.581e-05
1.101e-05
0.006871
0.0001517
0.0001161
0.0273
0.0001645
1.915e-06
0.01009
5.449e-07
4.815e-06
4.837e-10
0.0001468
0.000717
3.12e-07
8.652e-07
0.001298
0.0001559
1.89e-06
0.0001488
0.0001102
0.002146
0.000141
9.417e-05
0.0007229
0.01229
0.000178
3.781e-05
9.038e-06
0.0001561
9.496e-05
0.000155
0.01458
0.01265
2.705e-06
0.01696
0.0001513
0.0001672
7.553e-06
0.000155
9.78e-05
2.405e-05
0.0001552
0.0001917
7.351e-11
0.007602
0.0001288
0.0001282
1.682e-09
0.0001456
0.0001452
0.0001489
0.007699
0.003207
3.319e-11
2.835e-05
0.000153
7.952e-05
0.06737
0.0001455
0.000194
0.02387
0.0001447
2.115e-06
0.0002491
3.956e-10
1.217e-05
8.225e-05
0.0003387
0.000153
0.0001827
0.0001462
1.032e-05
0.0003336
3.559e-07
6.979e-05
7.204e-07
0.008179
0.0002727
0.007123
0.001057
0.0001549
0.03633
9.686e-08
0.001098
0.0001571
0.0007118
2.092e-13
0.0001452
0.0001706
2.733e-05
9.974e-07
0.01323
2.063e-06
0.001629
1.056e-08
2.11e-05
2.48e-09
4.324e-09
0.0002908
0.0001668
1.629e-07
7.789e-05
0.001281
6.226e-06
0.0001695
0.0001485
5.004e-06
0.0001327
0.0001506
0.0063
0.0001516
0.0004622
0.0001466
0.0004311
8.705e-07
7.462e-05
6.963e-05
0.0001552
0.0001201
5.579e-07
0.0007139
0.01345
0.0001618
5.799e-05
0.0001086
0.0003193
1.332e-05
0.001396
0.0001523
0.0002503
0.0001845
0.000112
0.0001455
0.0001454
6.772e-11
0.000411
0.0001455
1.161e-05
0.0001567
0.007185
0.0001579
0.000157
0.0001327
0.000145
0.0001751
2.499e-06
0.002573
0.01315
0.0001226
8.964e-07
0.0001598
0.0001549
0.0001532
2.748e-07
0.0001352
7.994e-05
0.0001448
0.01706
6.902e-05
3.133e-05
0.0003176
1.774e-06
0.0002159
0.0001453
5.411e-05
0.004469
7.814e-07
0.0001589
0.007493
0.0001537
3.061e-06
0.0001512
7.722e-05
5.076e-05
0.0022
0.00015
0.005662
4.392e-06
0.0001849
0.01253
0.0001454
0.0001508
0.0001289
0.0001283
0.0001517
0.0001679
0.0001414
0.01255
0.0002488
0.0001535
8.181e-05
0.0003531
0.0001237
0.0001753
1.099e-05
1.131e-05
0.0001007
1.223e-06
1.536e-05
1.571e-06
0.03105
0.009512
0.0001137
0.0001492
1.869e-05
0.001266
0.0001613
0.0001486
4.449e-06
0.01712
5.028e-05
0.05745
1.009e-05
1.01e-05
0.0001468
0.0001456
0.004135
8.778e-07
0.001367
0.0001555
0.0001513
3.439e-07
8.892e-06
0.0001543
0.0001535
3.116e-06
3.538e-07
0.005257
0.001495
0.03923
7.686e-08
1.796e-06
0.0001596
0.0001473
3.374e-09
0.0001501
9.332e-08
0.007107
0.01536
0.000146
0.0001533
0.0001804
6.482e-06
7.394e-06
1.927e-06
0.0001534
2.755e-06
0.0001492
0.0001514
1.559e-07
0.0001462
0.0009611
0.01531
0.0001502
7.542e-05
0.004493
5.981e-05
0.000149
1.126e-05
0.000135
1.037e-06
0.0001545
0.01048
8.325e-05
4.55e-05
0.001795
3.354e-07
0.001751
1.778e-05
0.001464
4.464e-07
0.0001345
0.0002402
0.006825
0.0001508
0.0001525
0.0001528
1.415e-06
0.000153
0.0001412
0.0001426
0.007898
0.006569
0.00012
0.0001468
7.344e-05
1.114e-05
0.0001492
0.000145
0.0001453
1.172e-05
0.0001557
0.0001718
0.000148
9.13e-07
0.0001453
4.532e-05
0.004501
0.02404
0.002375
3.023e-06
8.046e-05
5.473e-07
0.00015
0.004764
7.535e-07
1.888e-06
0.004921
0.000413
6.229e-05
0.0001402
0.00784
0.0001566
0.000123
0.0005466
0.0001462
0.000434
1.508e-05
0.0001386
0.005454
0.0002014
0.0001624
0.004978
0.0001528
0.0001347
0.0001442
0.0001781
0.0001083
0.0007916
1.281e-07
5.361e-05
4.506e-06
1.931e-06
0.0001607
0.0001196
0.001226
0.0001447
9.146e-07
0.0001467
8.726e-05
2.229e-05
0.0001719
0.0001473
3.194e-10
0.0005197
0.0001567
0.0001598
0.0001605
0.0001448
1.178e-07
0.0001462
0.009875
0.007922
2.572e-12
1.376e-09
5.321e-09
0.000147
2.116e-05
4.836e-05
0.0001453
0.01704
5.42e-05
0.0009321
0.000112
0.002225
2.897e-06
0.005515
1.264e-08
0.0004697
0.02366
2.475e-08
1.192e-05
1.042e-06
0.0001518
0.0001467
8.899e-05
0.004536
0.008395
0.0001458
5.386e-07
9.59e-07
0.0001446
0.0001304
0.0004295
0.0001567
6.219e-05
0.0001518
9.696e-07
0.01234
0.0001468
0.0003434
0.000146
0.0001387
0.0001597
0.001249
3.29e-06
1.077e-05
1.111e-05
1.532e-05
0.007374
0.0001279
2.478e-05
0.001361
0.0001707
0.0001462
1.306e-07
0.0007513
7.678e-07
5.445e-05
0.01295
0.0001483
0.0001479
0.0001506
9.737e-06
0.0001666
0.0001453
0.0001444
0.0001656
5.077e-06
0.004647
0.0001599
1.291e-05
2.745e-07
0.000156
0.0001469
0.0001426
0.0001178
0.003803
5.136e-05
0.000159
5.513e-09
6.122e-05
0.0001226
0.001469
2.641e-07
0.0001453
0.004982
0.01824
0.01537
0.0001385
0.0001026
0.006282
7.403e-09
0.0001346
3.708e-05
1.341e-05
0.0001453
7.576e-05
0.0001455
2.107e-05
0.001334
0.0001455
4.785e-06
3.758e-06
0.0004714
4.047e-05
0.001043
1.908e-06
2.068e-06
0.0002005
1.414e-05
9.537e-05
1.139e-05
0.006678
0.0002716
4.815e-07
0.0001496
2.229e-06
0.0001454
0.0001676
0.0001485
0.0007999
0.0001413
0.0001455
0.000162
1.89e-05
0.0006312
0.0001384
0.0001412
0.00035
1.246e-07
5.095e-06
1.067e-06
0.02587
0.0001712
0.002536
0.0001295
0.0001314
8.035e-05
2.956e-07
0.0001386
4.3e-06
0.0001634
0.0001642
0.0002287
0.0001471
0.0001442
0.002441
6.011e-07
0.001228
1.004e-06
0.0001484
0.0001508
0.0005082
5.34e-06
0.0001489
7.615e-07
0.0001565
0.0001636
2.989e-05
0.0001296
0.0001795
0.0001523
6.72e-11
9.16e-05
0.005119
0.004665
0.0004384
1.522e-05
4.561e-07
3.932e-06
0.0001487
5.408e-05
0.002802
0.001032
0.0001416
1.496e-05
0.000156
0.000152
0.0001303
0.0001415
3.396e-07
0.0001599
3.984e-06
2.184e-05
6.233e-05
0.01682
0.000159
5.635e-07
0.0001513
6.766e-06
0.0001446
0.0001393
0.0001699
0.0001509
1.337e-06
0.000152
8.199e-07
0.0225
8.988e-06
0.0001682
0.05766
0.0001505
1.121e-06
0.0001528
5.163e-06
1.473e-10
5.915e-05
0.0004797
0.005659
0.0001408
4.717e-05
1.025e-05
4.952e-07
0.04414
0.004512
0.0001326
4.793e-06
0.001743
1.941e-05
0.02627
9.277e-06
4.007e-05
6.935e-05
0.01032
0.0001603
1.549e-14
0.000156
0.0001487
3.244e-05
6.081e-05
2.229e-05
0.000144
0.008986
0.03127
0.004775
0.0001553
8.414e-07
0.0001722
2.517e-07
0.0001724
3.052e-06
0.00541
6.482e-06
1.922e-05
0.0001596
0.006695
0.0002787
1.088e-05
0.001078
0.0001457
0.0003641
0.0001582
0.0001458
7.969e-05
0.0001652
1.804e-05
0.0005419
0.0001587
5.875e-05
9.431e-08
0.0001126
0.0001279
0.006635
0.01868
1.164e-07
1.386e-06
0.0001549
0.01742
2.051e-05
0.0001283
0.001052
3.153e-05
0.0007489
1.858e-07
0.0007952
0.0001669
0.0002505
0.0157
0.000152
0.0001469
2.766e-11
0.00063
4.792e-05
2.658e-05
0.006103
0.0003174
0.0003607
5.767e-06
0.0001424
0.03565
0.0001111
0.0001539
0.0001974
8.844e-05
3.398e-05
7.043e-05
0.0001364
0.002755
0.01068
0.0001446
0.0001359
0.0002329
0.01649
0.02569
0.0003896
0.00525
1.355e-09
9.698e-05
0.0001525
0.0001418
0.002368
0.001879
2.427e-06
4.261e-07
0.0001554
0.0002037
0.0001464
0.002147
5.391e-09
0.0001419
0.0001644
1.506e-06
4.667e-05
1.077e-07
0.0001519
0.01998
4.467e-05
0.0001459
1.293e-06
0.0001416
5.7e-05
1.224e-06
7.692e-06
0.0009067
3.624e-08
0.0001462
1.008e-05
0.0001524
6.361e-07
0.001217
5.319e-07
4.459e-06
0.0001548
0.0001647
0.000164
8.008e-10
0.0001457
0.01684
3.894e-06
8.064e-06
0.002589
1.495e-08
0.0001989
0.0003797
0.0001124
8.943e-08
8.4e-10
4.519e-05
4.305e-10
1.081e-05
1.426e-10
0.0001044
3.497e-05
0.03602
5.393e-09
0.0001472
2.798e-05
0.0001366
0.0001367
0.0005295
0.0001494
4.152e-05
0.04367
0.0001655
0.0001487
0.0001551
3.735e-05
2.965e-05
0.000146
0.03712
0.001998
0.000155
3.089e-06
1.484e-08
0.0186
8.986e-05
2.868e-05
0.003682
0.0002079
0.000145
0.0001851
5.582e-06
0.0001483
7.895e-06
0.0008032
0.01696
0.0001379
0.007368
0.04064
6.39e-10
0.0001629
1.406e-08
0.005122
0.0001082
3.786e-05
8.202e-06
2.506e-06
0.0001328
4.769e-07
0.0001531
0.000133
0.0001741
8.144e-08
0.02855
2.615e-06
8.113e-05
0.0001361
3.456e-06
8.667e-11
5.635e-06
0.0001468
0.0001461
8.776e-05
0.0001737
0.000657
5.095e-06
0.0001953
5.209e-07
0.004991
0.0001521
4.541e-07
0.0001536
1.502e-08
0.0001444
0.008533
0.0002059
0.0009944
0.0001187
0.00384
0.0001457
0.0001457
4.193e-05
0.0001549
0.000955
6.918e-06
0.000165
0.01725
0.001729
2.117e-05
6.686e-06
8.007e-10
0.0002671
1.411e-06
1.789e-05
7.837e-05
0.01504
0.0001939
0.0003289
9.541e-05
2.621e-07
0.003633
0.000144
0.0001429
0.007937
0.008585
0.0001635
0.0001391
0.0001286
0.002473
0.0001608
0.000182
0.002535
6.337e-05
0.0001573
0.000149
0.0001608
0.000162
8.202e-08
3.147e-07
0.005903
0.0001537
0.02075
9.032e-07
6.562e-06
6.377e-05
0.02265
9.151e-05
2.15e-05
0.001346
4.355e-07
0.0001486
1.567e-07
7.925e-06
0.01908
4.655e-05
2.361e-05
0.0001455
3.721e-09
9.868e-10
0.0001375
0.0001441
0.0001266
0.0007983
4.035e-08
0.002414
2.941e-05
7.987e-06
5.257e-05
0.0001622
0.0001637
0.0001478
3.203e-05
0.03008
0.0001338
0.0001473
3.78e-05
0.002984
0.0001562
1.03e-09
0.002692
0.0001453
5.272e-06
0.000145
0.0001447
6.769e-05
0.0001544
1.129e-09
0.0001442
1.379e-06
0.000146
7.799e-05
0.0001541
0.04138
9.66e-05
2.252e-06
4.234e-06
2.427e-05
5.571e-05
0.0002039
0.0001554
0.0009976
1.419e-05
0.0003257
6.505e-05
2.358e-08
3.024e-05
8.789e-09
3.322e-05
6.152e-06
1.349e-06
3.736e-06
9.567e-08
0.0001514
0.03542
0.0001869
3.633e-06
0.004821
3.761e-07
0.0002029
1.874e-05
0.005641
3.598e-05
3.62e-05
8.726e-05
0.0001555
8.984e-07
0.009115
3.634e-05
0.001358
1.902e-06
0.001157
0.0001375
6.621e-05
3.329e-06
0.0001458
1.531e-05
9.668e-07
0.0001379
0.0001562
0.001611
0.0001535
0.0001514
0.0046
0.008244
0.000158
0.0001316
3.274e-05
0.0001152
0.0001447
0.0001512
0.0001501
0.00269
3.842e-05
9.891e-05
0.0001545
0.0001706
3.238e-07
2.369e-06
7.344e-06
0.008205
5.289e-09
0.00023
1.699e-05
0.0001456
0.001809
0.0001706
1.513e-05
3.566e-05
0.0002373
1.843e-08
0.0001471
5.677e-09
6.038e-06
7.97e-06
5.07e-05
6.923e-06
0.009823
0.04424
2.057e-07
4.018e-05
0.0001499
6.999e-12
0.006078
6.257e-06
8.6e-07
1.341e-05
5.946e-05
0.009427
4.383e-06
3.254e-05
0.000666
0.0008351
2.988e-06
4.801e-06
0.02571
1.179e-08
0.0001587
2.634e-05
0.0001566
1.476e-06
0.0001308
0.0001448
0.003397
3.662e-09
0.006978
0.003804
1.076e-09
5.756e-05
0.0001458
1.878e-07
2.973e-05
0.001637
1.622e-07
0.0001637
0.002188
2.15e-10
0.03705
1.104e-06
0.009504
3.846e-05
4.692e-08
5.816e-06
5.288e-07
0.0001557
5.126e-06
0.0001579
0.05946
0.0001205
0.0002947
0.0001181
3.225e-05
0.02168
5.695e-06
0.01353
0.0001619
0.02179
0.000153
0.0001582
8.726e-05
1.158e-08
0.0001503
1.974e-08
2.052e-06
0.00106
0.00127
0.0001459
0.01283
6.963e-05
0.0001606
4.584e-06
1.255e-06
3.342e-07
0.0001427
3.895e-06
0.0001246
0.0003618
1.29e-09
0.000128
0.02589
0.000115
0.0001461
0.0001017
0.001026
6.963e-08
2.175e-05
0.0001616
0.003117
0.0001452
6.438e-11
1.355e-09
0.003602
0.0001648
0.0001263
0.0001355
0.0001314
0.0006116
0.02388
0.02632
0.0001536
0.0001707
0.0001702
0.0001608
0.001453
0.01378
4.615e-06
8.037e-06
7.979e-10
0.0001661
4.28e-07
0.002065
0.0001388
0.0001316
2.173e-06
0.008291
4.697e-05
7.165e-10
0.001131
0.01354
0.0005401
5.078e-05
0.0003756
1.053e-09
0.04222
0.0004518
0.01946
0.01173
0.0001059
1.009e-05
7.459e-10
0.0001548
0.0002984
0.0001413
6.107e-06
2.645e-05
0.0001353
2.26e-05
5.85e-05
0.001622
3.304e-06
0.0001428
0.0001652
6.504e-11
0.0001455
1.067e-05
2.489e-05
3.554e-05
6.726e-07
0.0001647
0.0001111
0.0003012
2.152e-07
0.0009426
9.578e-06
0.0001505
3.617e-05
3.967e-06
2.675e-06
3.409e-05
0.0007923
0.0001451
2.55e-05
0.02588
5.742e-07
0.0001412
0.01848
0.000795
0.0001449
0.0001376
0.0001957
0.0001457
0.02249
0.0001394
3.463e-06
0.02368
5.607e-09
0.0005043
0.0004497
4.257e-06
0.0004145
1.576e-05
6.02e-06
1.259e-10
0.000501
0.0002144
0.0006755
0.0007125
0.01364
0.0001482
0.005986
0.0001464
0.008589
0.0001474
0.02575
0.0001435
1.737e-05
0.001772
0.0001378
0.0001444
0.001689
0.0001577
8.71e-06
0.0001542
0.0001336
0.0001614
0.0009401
0.0001497
3.33e-09
1.374e-06
8.425e-08
1.538e-05
5.743e-05
6.128e-06
1.595e-05
0.01505
0.0003665
5.78e-08
0.02007
1.318e-05
1.502e-06
5.928e-05
0.000277
0.02907
0.0001441
1.139e-10
0.0005632
2.388e-07
0.0001458
7.955e-10
2.097e-05
4.771e-06
0.002126
0.0001309
0.0001308
0.02551
0.04279
0.01322
0.01351
4.388e-05
0.0001651
0.0001562
0.009126
0.0001205
4.607e-07
0.0001181
0.0001882
0.001834
0.0001049
5.437e-07
9.609e-06
3.659e-05
5.04e-06
0.006336
0.0001461
0.005468
0.002782
1.332e-08
0.0003316
0.0001536
4.572e-05
0.003351
2.062e-05
0.008657
2.629e-07
0.06491
0.0001455
0.009968
7.973e-05
5.99e-10
4.659e-07
0.0001634
0.0006294
7.545e-06
0.0001586
0.0001305
4.256e-05
1.644e-05
3.898e-10
0.0001514
1.657e-08
0.002628
0.0001439
6.596e-06
0.0001318
0.009818
0.0001515
0.002198
0.0002922
4.633e-05
5.23e-05
0.0359
2.765e-06
0.0001521
2.672e-05
4.136e-06
1.183e-06
0.0001996
0.000199
3.267e-06
0.0001734
1.098e-09
0.0001347
7.24e-07
6.343e-07
1.077e-10
0.004555
0.0002717
0.0001488
0.0001456
0.0001437
0.01226
0.0001445
1.525e-09
0.0001454
3.456e-07
0.0001576
0.0001197
8.062e-05
1.456e-06
0.0002719
4.24e-07
0.0001591
0.0001339
0.004169
2.514e-08
0.0001448
2.38e-05
3.339e-05
0.005145
4.603e-05
0.0001661
0.003434
4.192e-05
2.488e-05
0.0001536
0.0001372
2.392e-06
0.0002087
0.0001327
0.0001592
1.262e-05
0.0001372
1.376e-07
0.0001462
0.0002513
0.0005648
0.004399
0.0001918
0.0001392
0.007053
5.128e-06
0.009985
0.0001513
8.169e-05
0.0001545
0.0001454
0.0001417
0.000126
2.436e-09
8.491e-05
3.398e-05
0.000149
1.067e-07
0.0001632
0.0001527
0.0001943
0.0001688
0.0002539
1.775e-06
0.0001497
2.1e-05
0.0001466
9.928e-05
0.0001486
0.0001521
3.26e-05
0.01742
0.0001612
1.257e-06
7.974e-05
0.0001414
0.0007889
1.914e-07
8.006e-05
8.308e-10
4.729e-07
0.01772
0.0001529
0.0001691
4.994e-07
0.0004329
1.918e-05
4.345e-06
0.0002348
0.0001547
0.0001444
2.158e-05
1.456e-05
0.0001112
0.0001459
0.0004921
0.0001456
0.0001628
0.000268
0.0001428
0.02149
0.0001658
0.0001058
0.002925
0.003151
4.853e-06
0.0001466
6.624e-06
5.193e-07
0.0001316
0.03206
1.565e-05
0.0001582
0.0006238
0.01003
2.823e-06
6.545e-05
0.007016
1.208e-06
6.483e-05
1.419e-05
1.151e-06
0.0001576
0.0001537
5.168e-05
0.0001516
8.901e-06
0.00243
0.0001513
3.802e-05
0.0001481
0.001028
4.085e-05
0.04048
0.0002393
0.0007954
9.628e-10
0.002056
9.595e-09
0.0001557
0.0001376
9.915e-09
2.203e-05
0.0001571
4.295e-06
0.0001508
0.0009065
0.0001491
0.00872
2.066e-08
0.005253
0.0001655
4.227e-05
2.104e-05
0.0001464
4.461e-05
0.0001531
0.000164
6.309e-07
0.0001491
3.432e-05
2.069e-07
0.0001444
0.0001486
0.007964
0.0002227
0.0002575
0.0001542
0.0001605
0.0001349
0.0001612
0.01939
0.0002387
0.0001562
4.129e-05
0.0001376
0.0001538
3.016e-06
7.099e-09
0.0001395
0.0001751
1.659e-08
0.01553
2.997e-06
0.01623
1.815e-05
6.392e-09
0.0001876
0.0003128
0.004886
0.0001505
4.43e-07
0.0001632
0.01417
7.112e-08
1.103e-05
0.0001487
6.076e-06
5.206e-11
5.085e-10
0.007753
0.004079
1.69e-05
0.000154
0.01357
7.94e-05
0.01559
4.773e-06
0.0008161
0.001721
2.673e-05
1.063e-07
0.003148
0.0001412
0.0001452
5.068e-05
0.0001369
0.001537
0.0001523
0.000151
2.284e-05
0.007595
0.02824
0.0001356
4.463e-06
4.852e-07
0.002466
3.415e-06
0.005178
9.332e-10
8.215e-06
0.000149
1.935e-05
4.672e-06
0.000728
2.836e-05
4.126e-10
0.0001282
1.362e-07
2.142e-05
1.763e-05
0.000138
0.0084
0.01552
7.563e-07
4.032e-06
0.0275
3.767e-07
0.0001655
0.0001725
1.344e-05
0.0001531
0.02418
0.0001452
2.493e-06
1.351e-06
2.063e-05
3.834e-07
8.102e-07
0.01017
7.599e-09
0.0003126
5.827e-05
0.000149
0.02452
0.000151
0.0405
6.163e-05
0.01479
2.727e-05
0.0002224
3.288e-05
9.353e-11
1.91e-08
0.002242
0.002543
0.0001639
0.0001601
0.0001459
0.0001487
5.174e-05
0.0001631
0.000145
3.977e-05
2.454e-05
7.51e-06
0.001178
9.601e-05
1.824e-05
0.00303
2.515e-05
9.001e-09
7.917e-07
0.0001561
3.227e-05
1.134e-10
0.01322
2.275e-05
0.0362
7.717e-05
0.0002982
1.328e-11
8.497e-05
7.575e-05
0.0001627
0.000156
2.702e-05
0.001734
0.0001454
0.000147
0.007582
4.004e-07
0.02313
2.92e-05
4.086e-09
0.0001887
0.0001494
5.787e-07
0.02363
0.001764
9.703e-08
0.0001603
0.03268
0.0002567
0.0002581
0.0001581
2.215e-05
0.0001465
0.0001646
0.02982
6.4e-07
0.06129
1.044e-05
7.642e-08
0.0001477
5.331e-07
0.003806
4.955e-06
2.11e-05
3.86e-05
0.0001512
0.01277
0.001646
0.003164
1.671e-06
0.001696
4.305e-06
3.613e-05
0.0001449
0.001678
0.03683
1.128e-06
4.298e-05
0.000718
0.005148
0.0001536
4.109e-08
0.000178
0.001342
0.0201
0.005221
0.02407
0.001046
0.000191
8.874e-09
0.0001621
0.0001485
1.98e-05
0.0001395
0.01413
0.0001496
0.0001547
0.009589
0.0001439
0.0001634
1.138e-05
4.969e-05
0.0001456
0.000148
0.02633
6.951e-05
9.632e-06
0.0001909
0.0008724
0.00721
1.362e-06
2.216e-06
0.04182
9.462e-05
0.002403
0.0001588
3.028e-05
1.911e-09
0.01602
3.344e-06
3.316e-06
0.01271
9.797e-10
0.0001454
0.0001372
0.0001659
0.000122
8.233e-11
0.0001458
0.007494
1.573e-05
2.179e-09
2.815e-05
1.939e-06
0.000125
0.0001248
3.801e-06
2.729e-05
0.008788
0.0001335
0.0001497
0.02196
0.0001409
0.000149
5.5e-07
2.038e-05
3.758e-05
0.01234
7.321e-08
0.0113
0.0001598
0.0001317
8.179e-05
2.011e-05
1.014e-06
5.531e-06
0.0001747
3.412e-07
0.000252
7.74e-05
2.91e-05
3.531e-06
0.0001127
0.0001542
0.0001038
1.556e-06
0.0001375
0.0001366
6.543e-05
0.0009899
1.961e-08
0.0001654
6.179e-06
1.318e-05
0.0003975
0.0001454
0.0001681
0.0001482
0.001421
5.869e-09
0.0001855
0.0001566
4.673e-05
0.0001524
1.868e-07
4.191e-05
0.0002132
7.643e-05
8.729e-05
3.367e-05
0.0131
5.323e-05
0.0001497
5.939e-05
0.000192
0.002506
7.179e-05
0.01099
1.273e-06
2.752e-05
0.0003311
0.002685
1.954e-06
0.002562
0.0002328
2.982e-05
0.0001575
0.0001676
7.863e-05
7.946e-09
0.0001636
1.114e-05
0.0001469
0.01689
0.0001484
2.122e-05
0.02084
7.421e-09
9.621e-05
0.0001528
1.969e-06
7.389e-10
3.392e-07
0.000277
4.449e-05
6.523e-07
6.675e-08
0.0007033
0.01252
6.248e-05
1.024e-10
0.0003479
0.001809
0.0001677
0.0001607
0.0001455
0.001142
3.859e-06
0.000111
0.0002129
0.02541
0.0001539
4.316e-08
0.0001309
0.001884
0.0001632
0.02906
2.489e-06
0.000164
0.0001524
0.02648
0.0001503
2.152e-05
6.485e-05
8.669e-10
3.033e-05
0.0002425
0.0001428
0.003884
0.001174
3.686e-06
8.747e-06
6.004e-05
0.02441
4.543e-05
0.0001453
8.554e-06
6.652e-06
0.000174
0.0001346
0.0004321
5.295e-08
1.068e-06
9.553e-06
0.0001688
0.0001598
0.0001555
4.023e-06
0.03605
0.0001536
1.197e-08
0.000204
0.001699
0.0001455
0.0001473
0.0001539
0.000146
4.264e-05
5.119e-05
0.004297
0.001011
1.141e-06
5.823e-08
0.0003782
1.484e-05
0.0003313
0.02321
5.729e-09
0.001058
0.0005153
0.007348
1.346e-08
0.007196
6.129e-07
1.684e-08
0.0001623
6.319e-06
1.201e-06
0.0001173
0.005141
1.178e-05
8.657e-05
3.923e-06
0.003331
0.0008565
0.0001489
0.03412
0.0001478
0.0001654
0.005705
0.0005506
0.0001055
0.0003587
4.408e-09
0.007318
0.0001461
3.668e-06
0.001377
0.01727
5.252e-05
0.0004847
0.0001832
1.72e-06
1.144e-06
1.154e-08
0.0001563
1.114e-05
0.0002081
0.0006054
0.0002509
0.0001514
1.235e-08
3.824e-06
3.857e-05
0.0001659
0.0001439
3.552e-05
3.478e-06
0.01362
0.0001198
1.102e-08
1.031e-06
8.035e-05
0.01243
9.231e-05
3.804e-06
0.0001446
3.238e-05
0.0142
0.0001511
7.642e-05
4.902e-06
0.000145
1.672e-05
0.006203
0.0001068
1.17e-07
0.0001256
3.345e-05
8.33e-11
0.002379
1.223e-05
0.0001309
0.0001301
1.412e-05
0.002015
0.0001573
1.989e-06
2.934e-05
0.0001438
4.155e-08
1.126e-06
0.0002319
0.0001455
0.0001462
0.0001715
0.000416
1.293e-05
1.549e-10
2.934e-06
0.0001576
1.816e-06
1.055e-07
0.0001542
2.695e-06
6.845e-06
0.0003203
0.000158
3.609e-06
0.04421
0.01049
0.0001302
0.0001284
0.0001287
0.0001272
0.0001583
0.01966
7.807e-05
6.674e-06
9.765e-05
0.0007756
0.0007198
1.414e-07
0.0001278
0.0001314
0.003992
5.271e-05
4.031e-07
2.438e-05
0.003651
4.638e-05
6.846e-06
0.0003523
2.288e-05
0.0001632
3.574e-05
8.496e-10
1.828e-05
4.653e-08
0.0001527
4.914e-05
0.0001454
1.233e-08
0.0005724
7.717e-06
9.349e-05
0.0001501
6.83e-09
0.0001458
0.002793
6.706e-07
0.0001886
1.684e-05
0.000867
0.002981
0.003118
3.115e-06
0.0001509
1.475e-05
0.0001369
0.0001736
0.0007946
0.0001736
0.01101
6.794e-05
0.0001435
0.0001453
0.0001561
0.0005669
6.303e-06
0.000169
0.002848
1.507e-05
0.0001297
2.922e-06
6.161e-06
0.01113
0.02173
0.02129
0.001204
0.0001611
6.159e-10
0.0001521
0.0001454
7.961e-08
0.0001452
0.0001447
0.0001591
0.0003113
9.014e-07
0.00719
4.114e-07
0.004934
7.425e-06
0.0001464
0.0001574
0.0006486
1.59e-05
0.02001
0.00021
0.0001573
2.656e-07
2.763e-08
0.0001483
6.163e-09
2.424e-08
8.982e-11
0.0002179
0.01363
0.003557
0.0001546
0.000148
0.01681
0.000111
1.286e-07
0.0001509
1.542e-06
4.323e-09
0.0001454
5.26e-06
1.225e-07
3.083e-05
0.0001458
1.174e-06
2.555e-08
3.822e-10
1.037e-09
0.0001627
0.001324
1.348e-09
0.0001565
0.0006734
0.000144
0.003418
5.124e-07
0.02312
1.139e-05
1.091e-09
0.0001593
0.006801
5.955e-05
0.0001492
0.0001534
3.101e-06
1.066e-06
0.02751
9.042e-06
2.13e-05
0.000148
0.01258
0.0003445
0.0005599
0.001652
0.0001455
0.0002979
0.0001529
1.605e-05
4.71e-05
4.137e-05
3.135e-06
0.0001035
1.186e-08
8.031e-11
6.312e-12
2.438e-06
0.0001537
3.899e-06
0.0001485
6.69e-07
1.69e-06
0.0001455
2.526e-09
0.0001489
0.0001857
6.043e-09
1.808e-07
0.00694
0.0001581
0.0001487
2.936e-05
0.0001301
1.076e-09
0.0001425
0.0001839
0.01301
0.002692
1.156e-08
8.672e-09
1.1e-08
0.007943
5.216e-06
1.739e-05
0.002051
0.0001515
3.992e-05
5.712e-09
0.0001392
0.001854
4.76e-05
0.002399
5.385e-05
0.01129
0.03762
5.776e-08
2.884e-05
2.738e-05
1.476e-08
0.0002112
1.439e-07
0.0001522
5.047e-05
0.0002619
0.0001488
0.0001548
5.547e-05
9.766e-07
3.427e-06
1.256e-08
0.0001781
0.0001453
0.0001067
1.311e-05
9.597e-08
0.006741
0.02422
0.0001264
0.0001507
7.497e-07
0.0001268
4.519e-05
8.116e-06
0.0001539
8.358e-05
0.008867
1.357e-07
8.163e-09
6.69e-10
0.0001502
1.736e-06
0.00143
1.153e-05
0.01869
0.0137
1.372e-08
0.01305
1.515e-06
1.096e-05
2.341e-06
1.937e-05
0.0001565
9.027e-09
0.0209
4.343e-05
0.0003205
0.0001773
5.002e-05
0.000165
0.0001458
6.739e-05
0.0001553
0.0007125
8.918e-05
5.789e-05
1.265e-08
5.161e-10
0.02682
1.35e-08
0.000749
0.0001597
0.00015
0.0001542
8.162e-05
0.0001489
2.406e-05
5.897e-09
6.353e-05
6.597e-07
0.03273
0.001835
2.665e-05
0.0002732
0.01171
1.165e-06
0.02282
8.85e-08
1.223e-05
0.0001383
0.001619
4.264e-05
0.0001477
0.0001551
2.596e-07
0.0001463
5.404e-06
4.85e-05
1.222e-05
0.0001105
1.062e-07
0.0002758
0.0277
0.0001502
2.279e-06
2.344e-05
5.301e-06
4.779e-05
0.0001432
1.049e-05
0.000144
0.0001668
0.0001921
0.01765
7.265e-10
7.758e-05
1.823e-06
0.01603
1.235e-06
0.0001601
0.0005527
0.004245
5.789e-05
0.0001389
0.0001177
0.0001462
1.109e-06
1.796e-06
0.0001093
0.001436
0.0001427
7.816e-06
5.063e-06
2.05e-05
7.89e-06
6.414e-06
3.833e-05
0.0001474
0.004291
0.0001243
0.0001494
3.522e-06
6.458e-05
0.0001558
0.0001637
0.0001567
0.0001403
2.744e-05
0.000137
0.0001349
0.0001465
0.0001535
0.0001516
7.695e-05
2.221e-05
0.0001457
1.345e-05
0.0001392
2.484e-05
0.0001469
0.0001702
0.0001518
2.495e-07
0.0002977
1.098e-09
0.001245
1.968e-07
0.000164
0.0001587
9.231e-09
0.00015
2.516e-05
2.288e-05
1.635e-05
8.661e-05
3.827e-05
0.000146
2.544e-05
0.0001821
0.0002948
0.001881
0.000128
9.014e-05
0.004315
4.349e-05
1.024e-05
0.0001437
0.003325
5.392e-05
8.542e-08
0.0001514
0.0001481
1.96e-06
2.257e-07
0.003829
0.001583
7.747e-05
5.262e-06
0.0001534
6.408e-05
0.0006216
0.02367
0.002576
0.001055
0.0001382
0.0001781
9.806e-10
0.02856
0.002877
1.756e-08
0.0001692
0.0001148
0.0001449
0.0001497
0.0001603
0.0001739
4.792e-08
0.0001704
0.000147
0.000147
4.066e-05
5.785e-11
0.0001469
0.007266
1.819e-06
2.644e-05
0.0001301
9.393e-06
1.563e-05
2.464e-05
0.0001832
1.485e-06
1.359e-07
1.947e-07
0.0001459
0.0008547
0.00177
0.0002669
0.0001429
0.0001678
0.0002196
0.01343
0.0001199
3.658e-09
2.643e-07
0.04746
1.174e-05
1.008e-07
0.01334
8.977e-06
0.00685
0.0001637
0.0001604
5.399e-07
4.759e-09
0.0001443
3.229e-06
3.491e-05
0.0001469
3.169e-08
0.006267
0.000171
0.0001552
0.0005338
1.737e-06
8.794e-05
7.402e-05
0.0001452
0.0001456
0.04365
0.00275
0.0001334
0.0001369
0.0001486
1.637e-06
0.03225
0.005557
3.677e-06
2.813e-07
0.02745
0.000251
0.0001427
7.99e-09
0.000168
1.2e-05
3.058e-06
0.0001537
1.264e-05
0.0001192
8.143e-06
1.406e-09
0.02904
6.911e-09
0.0001384
0.0001419
0.00288
0.0001512
0.000143
1.144e-09
1.695e-05
1.308e-05
2.577e-06
0.0001251
0.001048
0.0001408
9.661e-10
0.000156
4.179e-05
0.0001348
0.000152
0.00735
0.004081
0.0007195
0.0004967
0.02744
0.0001338
0.0001362
0.0004164
1.028e-05
5.058e-06
1.201e-08
0.0001606
0.01329
7.319e-05
0.0001471
0.0002231
2.164e-05
0.0004573
0.0001537
0.007622
2.136e-09
0.0001313
0.0001436
6.851e-05
2.919e-05
0.02351
4.067e-06
0.0001478
1.116e-05
0.0002849
3.32e-05
0.000148
0.0001529
9.406e-07
2.011e-05
3.02e-06
0.002937
0.0001779
0.0001363
5.017e-06
0.0001469
1.354e-06
1.034e-09
0.0001601
0.002393
0.009874
3.137e-05
4.272e-07
0.0001532
0.0001523
0.0001363
6.691e-05
0.000158
0.0001447
2.559e-06
9.092e-05
0.01173
0.0001357
0.000155
0.0001544
0.0001489
1.757e-05
0.001095
0.0001454
4.915e-05
4.217e-05
0.0001636
0.0001501
0.0001467
0.0001446
0.0001579
0.00177
0.02057
2.162e-06
1.114e-09
7.317e-09
4.318e-05
8.181e-08
1.88e-07
0.0001481
1.413e-09
3.656e-05
5.957e-06
0.02807
0.0001555
0.0001605
1.18e-05
5.719e-07
5.29e-07
7.7e-05
0.0001566
0.00228
1.422e-05
3.869e-05
0.0001533
0.0001641
0.001255
0.0001539
1.343e-05
0.0001565
0.0006957
9.062e-05
0.0001324
0.0001524
6.569e-07
1.4e-10
2.369e-08
0.0001373
6.472e-07
0.0005616
0.0001326
0.0001178
0.000146
8.69e-06
6.67e-05
0.0003331
2.236e-06
2.893e-05
0.0001495
0.0001657
0.02298
2.168e-08
0.0001467
0.0001525
1.384e-08
0.0001059
0.0001442
1.777e-07
0.006448
0.0001525
0.0001524
0.01763
1.974e-05
1.275e-09
2.343e-06
3.472e-05
0.008051
0.0006046
0.0001547
0.000145
0.0001535
1.298e-05
3.75e-05
0.0001441
0.0001479
1.602e-08
1.385e-05
6.178e-05
0.003143
0.002
3.598e-05
0.0001342
0.0001556
3.446e-05
0.0001314
0.0001504
2.886e-05
2.585e-06
0.01765
0.0001675
0.000175
0.01541
0.0001504
0.02179
6.174e-05
0.0001185
8.781e-05
0.0001477
6.418e-06
0.000448
0.005337
0.0001152
0.0001155
9.256e-06
0.0005432
4.018e-11
0.00518
0.0001581
0.0006582
0.0001414
0.0001003
6.617e-05
1.278e-07
2.091e-07
0.0004033
5.172e-06
1.532e-06
0.0003884
0.0001587
3.669e-05
2.767e-06
2.881e-08
0.000124
0.0001514
5.887e-07
0.0001652
5.094e-07
7.548e-05
0.01011
0.01854
1.287e-05
0.0001459
0.001647
0.0001671
0.0001447
0.0007626
5.527e-07
0.003364
2.934e-09
3.257e-06
0.0001936
0.0001448
0.0005156
2.212e-05
0.0001787
0.0003206
0.000128
5.277e-05
0.0002568
5.928e-06
0.0001465
1.895e-05
0.0001379
0.0001155
5.636e-06
5.414e-05
0.0001181
2.41e-06
1.711e-09
0.0001419
0.0001455
5.651e-05
3.853e-05
7.266e-07
0.0001449
4.216e-05
1.649e-06
0.008245
0.01761
0.0001457
8.399e-05
2.469e-07
0.0001514
0.005593
0.0001441
4.422e-05
0.0001515
0.0002736
4.991e-06
0.0002806
0.0006579
9.462e-06
0.0001462
0.0001495
5.246e-05
1.417e-05
0.0001932
0.0001434
0.0001479
5.437e-06
1.89e-05
6.785e-05
0.03073
0.0009569
0.05726
2.107e-05
7.454e-05
0.0001281
0.0001523
0.000158
2.7e-10
1.488e-07
3.188e-06
0.0001425
2.354e-06
2.93e-05
4.505e-05
4.44e-05
6.204e-09
0.0001589
0.0002837
3.383e-05
4.482e-05
1.751e-06
1.051e-07
0.04864
0.0002311
0.04024
0.0001497
1.265e-10
0.0001467
0.02499
3.207e-06
6.047e-05
0.01778
4.717e-05
0.0001124
5.795e-07
0.009395
0.0001093
0.002746
0.0001056
2.732e-06
2.633e-10
0.007619
3.285e-09
1.296e-08
0.0001455
2.876e-09
0.0001488
9.452e-07
1.341e-07
0.0003607
0.03302
0.0007531
4.218e-05
8.57e-05
0.0001502
0.001976
0.009077
0.007218
0.01563
0.001185
0.0001574
0.0001356
0.04512
7.729e-09
0.0001122
6.662e-06
3.762e-05
2.127e-06
0.0001347
1.496e-06
0.0001896
1.772e-07
0.007189
6.296e-09
5.388e-06
8.184e-06
0.0001541
5.755e-08
0.000153
0.00157
0.0009751
0.000158
0.0001602
0.003691
6.797e-05
0.004303
0.0003321
7.121e-05
1.924e-05
0.005865
6.715e-09
7.195e-05
6.572e-08
0.00015
0.01005
0.0009417
0.01422
0.0001523
5.392e-05
0.0001454
0.0001464
0.0001454
0.003748
2.487e-05
0.0005173
0.04116
0.000151
0.007777
0.0001506
7.049e-09
3.07e-07
8.012e-09
1.279e-05
0.0001532
1.248e-06
9.111e-06
0.0001574
9.093e-06
0.0001464
0.0008247
0.02992
0.0001777
0.02397
0.0001422
0.0001427
4.036e-05
0.01903
0.0001513
1.199e-09
2.341e-05
0.0001398
0.0001459
5.033e-05
0.000151
4.917e-06
1.969e-08
0.0001629
0.0001402
0.0001319
3.545e-05
2.065e-06
1.178e-09
0.0001529
0.0001612
5.92e-05
8.217e-06
0.0001528
3.988e-06
8.326e-05
0.0001668
1.914e-06
0.0006232
1.699e-09
0.0001518
4.643e-05
6.58e-05
4.293e-06
0.0001462
0.004564
0.0001456
0.004963
0.01926
7.072e-05
0.0003528
9.07e-06
0.0001915
0.0001601
3.927e-07
8.091e-06
1.569e-05
2.556e-06
1.173e-06
0.001536
0.0001626
4.484e-05
4.365e-06
0.01363
9.841e-06