/*--------------------------------*- C++ -*----------------------------------*\
  =========                 |
  \\      /  F ield         | OpenFOAM: The Open Source CFD Toolbox
   \\    /   O peration     | Website:  https://openfoam.org
    \\  /    A nd           | Version:  8
     \\/     M anipulation  |
\*---------------------------------------------------------------------------*/
FoamFile
{
    version     2.0;
    format      ascii;
    class       volScalarField;
    location    "45";
    object      nut;
}
// * * * * * * * * * * * * * * * * * * * * * * * * * * * * * * * * * * * * * //

dimensions      [0 2 -1 0 0 0 0];

internalField   nonuniform List<scalar> 
127143
(
6.419e-23
3.956e-22
2.591e-21
3.103e-20
2.253e-19
3.236e-20
1.236e-17
1.722e-18
5.144e-19
2.35e-18
2.045e-17
1.635e-18
1.376e-20
6.321e-20
1.012e-08
4.813e-16
1.083e-19
0.005269
0.003919
1.388e-13
5.459e-05
3.737e-13
6.609e-05
1.515e-08
3.129e-13
2.873e-11
1.169e-13
1.218e-13
7.317e-12
0.005736
2.183e-09
2.457e-11
1.372e-12
9.218e-11
5.065e-05
1.384e-12
2.542e-05
0.0001271
4.47e-08
8.963e-12
0.003926
4.327e-06
4.691e-06
7.254e-19
0.005299
1.522e-10
8.097e-12
0.0004096
2.003e-08
3.002e-08
1.787e-15
0.0004359
7.009e-06
4.994e-05
0.006668
2.516e-09
0.006667
9.347e-05
0.005957
4.701e-05
4.122e-06
0.00179
3.981e-07
0.006702
4.568e-10
2.258e-05
6.772e-05
3.324e-07
3.409e-07
0.002853
8.162e-09
3.809e-13
0.002761
0.005258
0.006693
3.751e-13
0.0008444
4.021e-05
2.63e-09
0.006705
5.807e-12
1.484e-13
2.68e-09
3.516e-11
0.00177
7.614e-05
9.996e-08
9.461e-13
2.338e-05
3.093e-08
0.005222
7.492e-05
1.082e-07
5.594e-05
3.645e-07
9.936e-05
4.685e-06
5.035e-10
0.0001473
5.785e-05
0.006705
2.52e-08
1.317e-09
8.925e-06
9.069e-05
0.0001308
2.504e-07
0.002854
9.328e-06
0.00668
1.63e-08
6.859e-13
6.509e-06
7.962e-07
0.006691
2.857e-05
0.0005934
0.006693
0.0008615
7.719e-15
0.00668
4.668e-09
5.274e-07
0.000109
7.157e-12
3.679e-12
0.000868
0.001015
4.509e-07
1.725e-09
7.353e-06
5.271e-07
7.07e-07
4.396e-05
3.082e-17
8.697e-06
0.0001795
0.0001145
2.375e-11
0.0001621
5.259e-05
0.001024
3.191e-05
0.0001487
7.523e-06
1.311e-06
5.826e-12
0.006702
4.132e-07
3.488e-10
3.795e-06
3.168e-08
7.441e-05
2.829e-05
4.079e-07
0.001822
7.393e-05
1.058e-09
0.0004361
3.129e-10
9.479e-09
1.294e-15
0.005451
7.583e-06
8.118e-11
9.896e-10
9.15e-06
8.505e-06
7.849e-10
0.0002026
3.357e-08
0.0001498
1.674e-05
1.512e-06
0.002666
0.0001383
2.37e-06
4.69e-07
3.058e-08
0.002135
1.535e-06
0.0005933
0.0002018
0.0001482
2.126e-09
0.001875
1.39e-05
8.338e-07
2.355e-08
0.0008078
2.293e-06
2.127e-07
0.0001811
6.094e-07
8.959e-18
0.0006752
0.006639
0.006626
1.904e-15
0.002939
0.006693
0.0002013
0.002096
3.671e-05
7.48e-19
1.598e-07
0.0001238
1.827e-06
0.005209
0.006691
0.0001206
0.001209
0.006688
9.122e-10
1.396e-06
4.328e-16
1.179e-09
1.752e-06
4.895e-06
0.0001215
2.857e-06
0.006694
2.868e-08
8.872e-06
1.558e-10
1.932e-08
3.001e-10
0.0001196
2.55e-07
0.0004357
3.881e-05
0.0007327
0.002904
1.23e-13
4.111e-05
0.0001017
7.538e-06
1.167e-20
0.006434
5.299e-06
2.647e-07
1.594e-09
0.000321
1.22e-09
1.499e-05
1.157e-14
9.188e-08
1.11e-13
6.346e-15
0.002888
6.525e-06
4.736e-11
1.222e-06
7.641e-05
1.053e-08
8.462e-06
0.001185
2.711e-09
6.402e-06
1.585e-05
0.000546
0.0008154
4.705e-05
0.000989
4.078e-06
1.174e-09
1.625e-07
1.173e-07
5.166e-06
2.643e-06
2.683e-10
0.002663
0.0007783
4.901e-06
6.416e-07
2.707e-06
7.179e-06
5.129e-08
0.002736
1.07e-05
0.003509
0.0001221
9.216e-06
0.00669
0.006691
8.956e-18
3.866e-06
0.006692
4.34e-08
0.002252
7.663e-05
4.736e-05
0.0001027
1.021e-05
0.006696
7.866e-06
3.612e-09
5.571e-06
0.0003178
3.071e-06
7.629e-10
3.398e-05
1.433e-05
3.599e-05
1.003e-10
1.083e-06
1.868e-06
0.006689
0.001385
1.625e-06
1.923e-07
9.33e-08
1.413e-09
0.003856
0.00669
7.999e-08
0.0001108
6.168e-10
0.0001221
0.00336
8.356e-05
4.818e-09
0.0004005
1.201e-06
7.183e-08
4.644e-05
0.0001091
3.714e-05
7.573e-09
2.36e-06
0.001042
0.006691
5.562e-05
0.006639
0.006626
3.142e-05
1.005e-05
1.688e-05
0.00104
1.975e-06
0.0001819
1.74e-06
1.054e-05
3.299e-06
1.194e-06
4.028e-08
2.617e-08
1.576e-06
1.198e-09
1.29e-07
1.828e-09
0.003751
9.137e-05
2.904e-06
0.0001384
5.292e-08
7.446e-05
1.913e-06
0.006339
7.609e-09
0.001288
4.625e-07
0.002953
3.364e-08
3.526e-08
0.006697
0.003332
0.002911
7.91e-10
0.002676
2.569e-06
0.000369
1.595e-10
2.725e-08
0.0009486
0.0001196
5.718e-09
5.719e-13
0.0002278
0.0028
0.001488
1.367e-11
2.273e-09
2.919e-05
0.0006573
6.764e-14
4.496e-05
1.388e-11
0.0006064
0.0004927
0.006685
1.36e-05
1.021e-07
1.035e-08
2.232e-08
2.244e-09
1.41e-05
3.783e-09
0.0001367
0.0006108
3.691e-11
0.006694
4.273e-05
0.0002365
4.371e-05
2.209e-06
0.0001264
7.384e-07
0.006705
4.339e-08
2.274e-06
8.689e-10
4.709e-05
0.0005261
7.787e-07
4.343e-07
4.56e-05
1.178e-10
1.434e-05
3.458e-08
1.121e-05
2.366e-11
5.483e-07
0.003157
0.0004016
1.306e-05
4.583e-06
3.913e-05
2.782e-09
9.443e-05
0.006677
5.856e-07
6.045e-05
0.0005236
6.722e-07
0.006697
1.616e-06
3.198e-08
0.00047
0.006695
0.00669
4.513e-08
0.0001512
8.953e-06
0.0003333
7.134e-10
0.006192
6.732e-08
0.00298
0.001222
9.357e-05
5.183e-09
2.729e-06
3.978e-10
3.767e-05
6.457e-05
5.365e-10
4.771e-09
8.57e-05
5.625e-06
1.061e-06
2.569e-06
0.000517
8.563e-07
2.279e-06
0.002698
0.001495
1.895e-05
2.753e-08
0.006667
0.0002818
3.499e-05
9.466e-05
0.0001121
0.0001365
0.006644
6.534e-07
4.418e-05
8.144e-08
1.556e-05
6.918e-12
8.981e-08
1.466e-08
1.564e-09
5.533e-06
6.797e-07
1.794e-05
0.006688
7.162e-10
0.0009103
2.019e-07
1.286e-07
4.594e-06
1.16e-06
2.308e-17
4.414e-06
1.147e-06
9.606e-05
1.392e-06
0.006686
6.103e-12
0.001511
0.000152
0.0007263
1.275e-19
1.361e-15
1.624e-15
0.006697
6.406e-08
1.366e-07
0.00669
0.001475
2.958e-07
9.096e-06
7.255e-06
8.325e-05
4.785e-09
0.0002892
1.013e-12
0.002739
0.001013
3.719e-14
1.777e-08
9.725e-10
5.675e-08
0.006308
4.287e-06
0.001804
0.0005206
0.006627
3.03e-10
9.903e-11
8.564e-08
0.006636
1.858e-05
0.0001148
9.791e-09
3.409e-06
2.191e-10
0.0008479
0.0009156
6.851e-07
4.613e-06
0.006668
3.648e-05
1.168e-05
5.747e-09
3.736e-08
1.662e-08
9.857e-09
0.0006458
1.278e-06
6.417e-08
1.388e-05
7.848e-07
0.003514
2.434e-11
9.863e-06
5.49e-10
5.904e-07
0.0003826
0.006702
0.006701
1.712e-05
2.046e-08
1.271e-06
0.006691
0.004941
1.254e-05
3.872e-09
0.0001261
5.319e-06
4.746e-09
2.27e-11
2.494e-05
0.00119
0.006682
7.244e-08
0.0001534
4.428e-07
0.005022
3.724e-13
9.892e-07
6.705e-07
0.002796
1.019e-10
0.006691
0.0001542
0.0004306
0.0006412
0.005086
1.991e-07
0.0005456
9.139e-14
0.006644
2.72e-07
1.351e-09
0.00669
2.235e-06
0.005359
1.076e-07
2.784e-05
0.00669
6.052e-09
7.583e-09
2.566e-07
4.785e-07
4.284e-05
2.452e-09
2.824e-09
1.497e-06
6.265e-08
1.631e-07
3.881e-08
4.955e-05
5.528e-06
2.719e-10
0.005597
2.315e-09
0.006689
1.245e-06
0.0008545
3.533e-05
0.006677
0.005961
7.301e-05
3.8e-08
1.587e-05
0.006482
0.006675
3.856e-07
1.635e-11
7.675e-09
9.295e-10
0.002386
9.478e-06
0.0001013
1.94e-06
3.62e-06
2.23e-07
2.057e-10
0.006481
1.779e-08
5.015e-06
9.404e-05
6.993e-06
0.006623
0.004942
4.458e-05
7.157e-11
1.811e-05
2.335e-11
0.0007781
0.003943
3.866e-06
1.928e-08
0.0001939
6.978e-10
9.513e-05
0.0005973
4.327e-08
6.419e-06
5.725e-06
2.362e-05
1.941e-18
3.02e-08
9.303e-05
6.242e-05
4.27e-06
1.041e-07
2.534e-10
1.096e-08
0.0004114
7.879e-07
4.515e-06
4.788e-05
0.006677
6.152e-08
1.891e-05
4.626e-06
0.006636
0.006677
7.645e-12
9.486e-05
6.536e-09
1.927e-07
1.848e-07
0.00137
3.076e-05
3.264e-10
1.02e-05
1.112e-08
0.006687
0.006667
5.831e-06
1.416e-05
1.583e-09
5.098e-06
2.216e-10
0.00218
1.092e-08
9.864e-05
0.002497
0.004101
8.528e-10
0.0001486
8.337e-09
3.037e-17
8.373e-07
5.11e-06
0.0002628
0.004903
4.67e-07
3.636e-08
1.409e-11
0.004226
0.0003455
3.674e-06
6.48e-10
4.293e-05
2.496e-08
0.003258
1.999e-08
3.167e-07
1.663e-06
0.0009146
5.753e-05
2.073e-22
2.168e-05
0.0001809
1.768e-07
2.943e-07
1.303e-07
0.006686
5.198e-05
0.003732
0.0001319
0.003783
1.829e-11
8.246e-07
9.435e-11
0.003722
7.162e-09
4.104e-05
2.022e-08
1.434e-07
0.004118
0.0002827
1.108e-07
1.35e-08
6.141e-05
0.002613
1.071e-05
4.978e-07
0.00352
1.742e-06
5.697e-05
1.373e-07
4.691e-06
3.576e-05
8.199e-07
1.756e-11
3.109e-07
0.006609
0.0002764
0.001996
2.366e-11
1.391e-09
5.092e-05
0.001545
1.591e-08
0.00662
1.11e-05
4.652e-08
1.617e-05
3.399e-13
1.634e-05
1.085e-07
6.911e-06
0.0004569
1.808e-05
0.006697
4.951e-19
6.932e-06
6.311e-07
7.203e-09
0.0001498
8.059e-07
1.98e-06
1.431e-08
0.006681
0.004039
8.592e-06
0.003972
8.163e-07
2.094e-07
2.429e-07
5.409e-07
0.006659
0.0001182
9.98e-05
0.006688
0.006656
7.096e-06
0.00176
0.002374
9.964e-07
0.0001652
6.891e-15
4.898e-06
8.616e-06
0.006678
5.21e-05
1.576e-05
3.139e-09
2.062e-10
8.677e-06
0.003679
0.006495
0.001089
3.046e-13
0.006678
0.0001031
2.906e-10
4.031e-07
2.176e-11
0.005783
0.0006482
4.222e-07
0.006692
1.326e-09
0.006679
1.858e-07
6.593e-11
3.45e-08
6.95e-06
2.833e-12
0.005368
1.351e-08
2.035e-05
4.027e-10
9.687e-07
2.945e-10
3.971e-10
5.314e-05
6.604e-05
1.179e-05
1.001e-14
0.006691
0.0002398
3.729e-09
8.131e-09
3.918e-06
9.803e-13
0.003741
0.0002506
6.667e-08
1.083e-11
1.933e-14
1.099e-07
3.098e-16
1.787e-08
5.578e-16
8.446e-07
1.175e-08
0.004021
1.572e-13
0.0008539
1.713e-07
0.005016
0.005157
2.488e-05
0.0004597
5.368e-07
0.00292
7.763e-07
4.859e-05
0.0003701
4.034e-08
1.473e-07
0.006666
0.002876
2.255e-05
0.0004318
3.537e-09
9.805e-14
0.0004406
2.145e-06
1.449e-08
0.0002307
3.413e-07
0.006687
4.99e-06
9.236e-09
0.006376
1.205e-08
1.06e-05
0.001911
0.006664
0.003055
0.002152
1.414e-15
1.346e-05
9.189e-14
0.0002776
1.124e-06
2.394e-07
5.447e-10
6.938e-09
0.005621
4.742e-11
9.9e-06
0.005482
1.002e-05
1.679e-13
0.0009272
3.701e-09
3.823e-06
1.595e-05
1.175e-10
3.715e-16
1.479e-08
0.0009245
0.006693
2.117e-06
8.25e-06
4.058e-06
7.645e-09
6.975e-07
9.68e-11
3.789e-05
5.873e-05
8.194e-11
0.000159
1.995e-12
0.006687
0.000336
6.8e-08
6.114e-05
5.225e-07
0.000154
0.006691
0.002376
1.665e-08
4.162e-05
2.91e-06
1.894e-08
1.934e-07
0.001154
1.805e-05
1.08e-07
2.902e-08
1.3e-14
9.081e-06
1.353e-09
2.089e-08
2.482e-06
0.001107
5.697e-07
9.475e-07
1.57e-08
1.47e-12
0.0001369
0.006686
0.006681
0.0004078
0.000191
8.904e-05
0.006687
1.652e-06
9.749e-05
6.61e-05
2.934e-07
3.484e-05
1.392e-07
2.317e-06
0.006705
7.058e-05
5.468e-05
5.665e-12
1.158e-10
4.151e-05
1.144e-05
0.0003203
8.88e-10
1.85e-08
1.169e-06
0.002431
6.301e-07
1.16e-07
9.472e-06
7.032e-11
0.006452
8.996e-12
4.375e-10
0.002078
6.221e-07
9.756e-09
0.004729
8.102e-14
1.403e-14
0.006289
0.006689
3.016e-06
2.35e-05
6.21e-14
3.411e-06
1.874e-07
9.463e-09
7.125e-08
7.521e-05
0.0001076
0.002951
3.496e-08
0.001525
3.356e-07
1.691e-05
4.842e-09
4.842e-05
0.005447
2.233e-14
1.225e-05
0.006691
1.901e-08
0.005702
0.006685
1.343e-06
7.685e-05
2.428e-14
0.006686
1.427e-09
0.006693
1.513e-07
8.987e-05
0.00331
5.416e-06
2.469e-09
8.408e-09
2.941e-08
7.097e-07
0.003698
0.0005212
6.092e-05
5.038e-08
7.789e-07
1.215e-07
1.6e-12
3.443e-08
1.249e-13
3.472e-07
8.843e-09
1.981e-09
7.674e-09
1.852e-11
5.531e-06
0.003784
0.003976
7.472e-09
1.544e-05
1.537e-10
0.003082
1.482e-08
0.0004088
2.857e-07
1.731e-07
1.887e-06
6.554e-05
6.43e-10
0.0008888
2.895e-07
3.156e-06
1.379e-09
8.748e-07
0.006534
1.453e-06
6.933e-09
0.005837
6.499e-08
1.117e-09
0.006671
2.634e-05
2.599e-06
0.0002926
5.552e-06
0.0002291
7.013e-05
0.0001038
0.006656
1.448e-07
4.269e-07
0.006693
7.582e-06
0.0001624
0.0001073
1.182e-07
3.665e-06
0.0004109
5.634e-08
2.323e-12
2.668e-09
2.019e-08
0.0005622
1.538e-13
0.002946
8.401e-08
0.006691
3.553e-05
5.552e-06
8.551e-08
1.694e-07
5.975e-08
1.878e-12
0.006698
8.521e-15
3.058e-09
5.845e-09
5.001e-07
4.374e-09
0.0009924
0.004142
6.543e-11
3.357e-07
6.648e-05
5.216e-18
8.748e-05
1.558e-08
5.169e-10
5.273e-08
1.402e-07
9.106e-05
5.872e-10
2.121e-07
4.925e-06
6.49e-06
4.958e-09
1.132e-08
0.0009488
9.53e-14
9.269e-05
1.264e-07
0.0001173
1.489e-09
0.006641
0.006689
7.571e-05
8.254e-14
0.0002489
0.00267
2.046e-14
3.787e-08
0.006692
2.832e-11
1.941e-07
1.468e-05
1.052e-12
2.595e-05
1.556e-05
1.594e-17
0.002806
9.703e-11
0.0006723
3.095e-07
9.209e-12
1.424e-08
3.164e-10
4.851e-06
1.622e-08
0.000107
0.003143
2.631e-06
1.768e-06
4.222e-06
2.282e-07
0.001979
1.881e-10
0.0006722
8.302e-05
0.001446
4.027e-06
3.543e-05
2.672e-06
9.831e-14
6.142e-05
1.882e-12
6.68e-10
5.682e-06
1.457e-05
0.006693
0.001102
1.283e-06
3.492e-05
9.063e-10
8.283e-10
1.335e-10
0.006681
6.351e-09
3.927e-08
8.555e-06
2.874e-14
9.315e-07
0.002916
1.063e-07
0.002592
7.141e-08
7.597e-06
5.002e-12
1.378e-07
0.0006254
0.0001954
0.006695
3.903e-16
2.597e-14
5.369e-05
7.122e-05
5.181e-06
0.006497
0.006645
7.118e-07
0.0009809
0.003299
9.427e-05
0.003335
0.003254
1.539e-06
3.118e-05
0.001194
1.774e-08
2.493e-08
1.49e-14
3.303e-05
2.205e-10
1.014e-05
4.217e-07
0.006646
2.563e-09
0.0006282
3.278e-07
1.079e-14
1.071e-05
0.001468
3.906e-06
4.37e-07
1.313e-05
5.084e-15
0.001618
7.231e-06
0.001649
0.001229
9.247e-06
3.241e-08
4.342e-15
7.729e-05
1.142e-07
0.006674
1.582e-08
1.313e-08
0.006661
4.842e-09
7.463e-07
1.567e-05
5.267e-09
0.006681
2.392e-05
1.495e-16
0.004761
3.664e-08
3.069e-08
2.715e-07
3.776e-11
5.844e-05
9.436e-06
2.045e-07
4.724e-11
9.609e-06
4.458e-08
1.872e-05
2.019e-07
3.282e-10
1.523e-10
9.026e-08
8.691e-06
0.00669
1.103e-07
0.00296
3.384e-10
3.326e-07
0.001963
8.2e-06
0.006679
1.905e-05
6.103e-07
0.006611
0.002197
0.006176
5.201e-10
0.002229
1.525e-13
2.066e-06
1.184e-05
4.131e-09
1.038e-05
7.186e-08
7.857e-09
3.696e-16
5.22e-06
1.006e-06
1.805e-05
2.643e-05
0.0008105
0.006702
4.294e-05
0.001324
0.0006693
0.006699
0.001882
0.006684
5.73e-08
1.005e-05
0.006671
0.006683
1.785e-06
0.0001029
6.498e-09
7.422e-05
0.006669
6.144e-06
2.019e-05
6.568e-05
9.581e-16
2.682e-10
2.335e-13
6.794e-08
6.383e-07
1.566e-08
6.398e-08
0.0002557
0.0001266
6.898e-12
0.0006521
5.917e-09
2.178e-09
1.011e-06
5.043e-06
0.003666
0.006686
3.37e-16
8.27e-06
3.461e-11
0.006691
1.314e-14
4.84e-08
1.07e-08
8.876e-06
0.006635
0.006634
0.001819
0.001461
0.002246
0.001287
3.566e-07
5.752e-05
4.995e-06
0.003414
1.086e-05
1.286e-10
1.25e-06
0.0001319
5.689e-05
9.066e-06
4.235e-10
9.588e-09
2.338e-07
1.151e-08
0.0003111
0.002709
1.905e-05
7.502e-06
7.377e-13
1.045e-05
0.0003041
3.184e-07
0.002616
1.098e-07
7.354e-05
1.417e-10
0.003934
0.006692
0.0002966
7.71e-07
7.005e-15
2.67e-11
9.304e-05
7.065e-06
4.403e-09
9.907e-05
0.006617
1.742e-08
3.371e-08
1.246e-15
5.875e-05
1.324e-13
1.567e-05
0.006685
3.499e-08
6.536e-08
0.0009628
1.414e-05
0.0001459
2.215e-07
4.517e-07
6.775e-07
0.0007709
8.384e-10
0.0001275
3.41e-08
2.48e-09
1.077e-09
0.003502
0.003499
6.057e-09
8.252e-06
3.636e-15
6.651e-07
5.2e-10
3.66e-10
3.169e-16
0.003115
5.854e-07
0.000405
0.003882
0.006685
0.0006032
0.006277
1.611e-14
0.006691
2.926e-11
4.097e-05
1.106e-06
3.757e-07
1.424e-09
0.002872
1.311e-11
9.01e-05
1.761e-07
0.0001917
1.646e-12
0.006687
1.606e-07
3.545e-08
0.0002813
2.921e-09
5.631e-08
9.248e-05
1.859e-08
5.001e-09
0.0001679
0.006661
1.652e-10
0.00286
0.00665
5.678e-05
9.865e-10
0.00666
2.885e-11
0.006694
8.889e-06
4.663e-06
0.0003166
5.618e-07
0.006657
0.0002559
6.723e-09
9.703e-05
3.53e-05
2.669e-06
3.703e-05
0.00669
0.00668
3.134e-06
3.958e-15
1.172e-06
2.139e-07
0.0008619
2.664e-12
7.697e-05
4.798e-05
0.003194
2.018e-05
1.182e-06
2.123e-09
0.0006586
4.435e-08
0.001096
2.315e-06
0.006703
4.141e-06
1.069e-07
0.0003788
7.883e-07
8.746e-10
3.671e-07
0.006675
1.548e-05
6.15e-11
1.297e-07
1.502e-14
2.634e-10
0.001947
0.0003021
1.413e-05
9.269e-12
1.152e-05
2.279e-08
1.143e-10
0.003116
6.499e-05
0.006686
1.954e-07
4.967e-08
1.639e-06
0.006692
5.826e-07
0.006692
9.944e-05
1.197e-06
0.006682
0.002454
5.762e-05
1.057e-06
0.0001889
0.002961
1.131e-08
0.006696
1.022e-08
6.566e-11
1.122e-05
0.003814
6.74e-08
0.0009434
4.197e-06
0.0001041
5.873e-10
3.288e-07
7.543e-05
1.188e-09
9.251e-07
9.678e-08
9.229e-11
0.0001437
4.56e-05
2.287e-07
0.0002032
2.877e-08
8.317e-05
1.044e-05
2.869e-07
0.0003345
0.002843
6.442e-09
0.002197
1.664e-06
4.724e-06
1.659e-14
1.987e-05
5.347e-13
6.258e-05
0.006663
5.505e-13
1.078e-07
9.618e-05
9.489e-09
0.0004053
2.744e-05
0.006705
0.0008506
1.87e-12
0.0003723
4.732e-06
3.414e-07
1.004e-07
0.006695
4.022e-07
7.825e-06
7.015e-06
3.376e-10
0.0004393
2.398e-07
6.079e-11
0.006687
0.0002463
5.615e-05
0.003025
3.753e-06
1.805e-05
3.154e-05
1.614e-06
0.0001027
0.0008214
0.003366
4.385e-05
5.409e-07
0.006537
2.657e-05
1.987e-09
1.2e-13
0.006687
3.554e-07
9.815e-13
0.00133
5.54e-09
0.001548
9.188e-08
1.11e-13
0.003229
0.002802
2.249e-05
0.0009662
3.528e-10
3.753e-06
0.0004838
1.064e-11
5.068e-08
0.000449
2.938e-08
5.863e-17
1.528e-16
4.421e-05
1.607e-05
7.878e-08
7.104e-05
0.0007
2.945e-06
0.0004519
2.96e-09
1.19e-06
2.183e-06
5.648e-08
3.807e-12
0.0001032
2.806e-05
0.00669
2.637e-08
2.743e-05
2.951e-05
1.617e-05
8.124e-05
1.049e-07
4.057e-05
0.003287
0.006663
5.086e-09
2.717e-10
2.099e-05
8.119e-09
0.0002986
1.49e-14
1.865e-08
0.000195
6.98e-08
2.019e-10
2.764e-05
1.761e-07
4.012e-15
0.006609
1.659e-11
8.811e-09
8.487e-08
0.005013
0.0002949
0.00122
5.651e-10
1.111e-08
0.001673
1.887e-10
0.00504
5.923e-06
5.134e-08
0.0001306
0.001826
0.006239
3.98e-09
2.026e-10
1.103e-07
1.487e-10
2.185e-11
0.0003089
3.527e-13
0.002899
2.595e-08
6.335e-06
0.002521
0.0001231
0.004149
1.017e-06
0.0006363
1.733e-07
0.00341
1.951e-07
3.983e-16
3.042e-13
1.995e-05
3.201e-05
3.503e-05
1.305e-05
0.002025
0.0002157
7.219e-07
7.986e-05
0.006695
3.365e-07
1.475e-07
2.271e-08
3.218e-06
2.727e-06
5.237e-08
0.0001036
5.189e-09
1.347e-13
1.091e-11
0.0001076
2.099e-07
6.186e-16
0.001241
3.278e-09
0.003506
2.284e-06
5.148e-06
5.708e-18
4.157e-06
2.441e-06
0.003746
0.0001815
2.292e-08
1.136e-05
0.006691
0.006697
0.0005541
1.998e-10
0.001346
1.756e-07
1.06e-13
1.747e-06
0.001185
3.629e-10
0.002334
8.342e-06
1.944e-11
8.799e-05
0.004657
7.656e-06
2.264e-06
7.2e-05
1.984e-07
0.006695
8.642e-08
0.003348
4.402e-10
0.003393
3.545e-08
9.53e-12
1.72e-05
3.224e-10
9.417e-05
3.108e-09
1.179e-07
5.642e-09
2.028e-05
0.001014
2.121e-05
8.534e-05
2.085e-09
6.972e-06
3.232e-10
3.664e-08
0.006694
5.27e-06
0.003517
9.993e-10
3.592e-07
0.002716
0.0003777
8.983e-05
6.186e-12
0.003654
6.454e-06
0.0005889
4.445e-05
0.002024
6.507e-05
0.000125
1.381e-13
0.0001127
0.0003565
9.492e-09
0.006671
0.0006414
7.038e-05
5.752e-05
0.0008964
0.006687
9.842e-05
4.044e-08
1.055e-08
0.006692
0.001038
0.002375
1.659e-06
3.411e-08
0.001264
1.749e-05
7.916e-05
7.809e-10
3.077e-09
0.001496
6.259e-07
2.037e-05
9.613e-05
2.029e-07
2.883e-14
0.001759
7.46e-10
5.745e-09
0.001306
1.719e-14
0.006691
0.00666
1.396e-05
1.717e-05
2.228e-16
0.006692
0.0006668
9.428e-09
6.493e-15
3.787e-08
1.936e-09
0.006311
0.006389
7.761e-09
2.216e-07
8.993e-05
6.162e-07
5.606e-05
0.0007345
2.782e-05
0.006705
3.506e-10
7.623e-08
2.929e-07
0.0002066
1.238e-11
0.001322
1.782e-05
0.006656
2.899e-06
5.878e-08
6.993e-10
6.975e-09
1.737e-06
1.981e-11
1.747e-07
1.523e-06
1.913e-07
7.677e-09
9.509e-07
0.0001086
6.033e-07
1.296e-10
0.004923
0.005149
1.075e-07
3.346e-06
1.419e-12
9.598e-06
4.593e-09
8.391e-08
0.00281
0.00669
7.572e-06
0.006702
3.976e-05
1.518e-13
2.269e-06
9.156e-05
3.266e-07
0.0001235
7.661e-12
5.762e-08
0.003248
2.302e-06
2.882e-06
2.395e-07
0.0003586
2.743e-07
1.114e-06
9.056e-07
4.769e-06
3.844e-05
1.86e-06
0.0008485
4.314e-10
1.392e-07
4.67e-06
7.364e-06
9.458e-11
1.158e-05
1.825e-07
2.204e-08
1.035e-06
8.577e-06
1.534e-06
3.782e-13
0.0001152
5.898e-08
0.001577
0.0009845
0.006703
1.139e-07
0.002489
3.47e-13
3.056e-07
4.12e-05
6.465e-10
3.439e-15
1.364e-10
8.205e-06
3.835e-07
4.173e-10
1.251e-11
0.00266
0.0003156
1.068e-06
7.448e-16
2.326e-06
2.799e-05
6.82e-05
7.591e-05
0.006691
6.965e-05
2.265e-10
7.07e-06
5.076e-08
0.002076
9.675e-05
1.048e-11
0.006642
5.357e-05
0.0001118
0.001543
9.036e-10
7.196e-05
1.838e-05
0.003116
5.749e-05
4.687e-08
1.238e-06
1.22e-14
1.162e-08
1.523e-06
0.006673
5.646e-05
9.71e-06
3.139e-10
6.791e-09
8.776e-07
0.00308
6.228e-07
0.006351
2.064e-08
4.721e-09
8.556e-06
1.62e-06
1.42e-05
1.01e-11
1.008e-09
1.32e-08
1.569e-06
6.036e-05
1.488e-06
1.464e-10
0.003793
0.0001164
1.296e-13
0.00301
8.484e-05
0.005285
0.006698
1.329e-06
0.002935
2.311e-08
3.557e-07
0.0001019
6.194e-05
1.111e-09
1.281e-11
2.324e-06
7.854e-09
2.212e-06
0.001376
9.651e-15
2.706e-05
4.374e-06
0.003365
5.814e-14
0.0006262
3.271e-11
7.375e-13
0.003746
3.729e-09
1.182e-09
9.134e-06
0.0003614
9.597e-10
1.162e-07
1.34e-09
0.0001273
1.952e-05
0.0001986
0.004037
0.0067
4.908e-05
0.0004151
4.629e-07
1.18e-06
7.538e-06
1.162e-13
0.0004899
0.005311
8.857e-09
2.572e-05
0.0009201
4.923e-07
9.509e-06
8.504e-07
1.964e-09
3.781e-10
7.159e-13
3.295e-07
4.097e-08
1.082e-07
5.557e-06
6.188e-07
2.169e-05
4.265e-14
1.062e-08
3.119e-07
9.476e-06
0.006678
1.428e-07
7.308e-09
0.0007003
9.592e-06
6.333e-13
7.449e-10
2.426e-07
0.0001456
1.698e-06
8.839e-10
0.00669
1.999e-09
0.001505
0.0001353
8.776e-07
5.723e-09
0.006695
6.206e-08
0.0004403
2.397e-06
5.148e-12
3.46e-06
3.831e-07
3.582e-16
4.936e-05
4.984e-08
0.006652
0.006634
5.951e-08
2.188e-05
1.419e-05
2.956e-09
1.958e-07
0.006685
6.96e-12
7.714e-10
7.915e-06
0.006695
0.004415
4.886e-06
5.715e-06
5.234e-08
1.972e-16
2.931e-09
0.005543
2.204e-09
1.471e-12
8.557e-05
3.553e-09
1.753e-08
0.003098
6.047e-05
1.152e-09
0.001259
0.000177
0.006631
0.006588
0.006613
0.006296
0.0001221
0.0005767
1.516e-06
6.013e-09
4.986e-06
1.569e-06
2.171e-05
7.133e-11
0.006147
1.28e-06
5.565e-05
7.229e-09
2.519e-10
2.691e-09
8.034e-06
4.28e-07
1.902e-08
1.454e-05
1.294e-07
0.0001666
2.307e-07
1.931e-15
5.964e-08
6.803e-12
4.133e-06
1.387e-07
0.00669
5.108e-14
5.555e-06
1.677e-08
5.58e-06
0.0001301
1.036e-13
0.006693
2.674e-05
5.977e-10
0.004473
1.252e-07
6.375e-06
0.0001936
1.43e-05
2.174e-10
8.529e-05
1.193e-08
0.006624
8.56e-06
6.557e-06
3.907e-07
0.0005925
3.737e-07
0.006677
0.005439
6.864e-05
3.535e-07
3.723e-09
9.249e-05
0.0001555
9.835e-08
1.306e-05
4.336e-10
1.59e-08
0.0008679
0.002213
0.0007027
1.428e-05
0.0001042
5.556e-15
3.792e-06
0.006689
5.178e-12
0.006691
0.006686
8.426e-05
0.002897
7.436e-11
0.0004243
1.89e-10
0.0001369
1.78e-08
0.006695
9.336e-05
9.038e-07
6.821e-08
0.001468
0.00383
6.28e-05
5.129e-12
3.896e-12
0.006702
4.623e-13
2.754e-12
2.415e-16
0.003194
0.001179
0.0002688
9.141e-05
0.0006691
0.001466
4.549e-07
2.725e-12
1.004e-05
1.829e-09
1.697e-15
0.006691
1.119e-08
3.907e-11
2.116e-07
0.006693
1.098e-09
2.856e-13
2.6e-15
1.319e-14
0.0001075
1.091e-05
1.694e-14
0.0002616
5.086e-06
0.006686
0.0001978
4.062e-10
0.002767
1.935e-08
1.433e-14
9.622e-05
2.716e-05
3.043e-07
0.006706
0.003631
4.942e-09
6.608e-10
0.002656
5.696e-10
1.826e-07
3.825e-05
0.001023
1.409e-05
9.221e-07
1.917e-05
0.006691
7.678e-06
4.195e-06
6.751e-08
7.132e-08
1.12e-07
5.323e-09
1.757e-07
1.182e-13
6.979e-16
4.426e-18
3.696e-09
0.0001481
2.182e-09
0.0003382
4.833e-10
6.414e-10
0.00669
3.409e-15
0.006705
5.919e-07
3.39e-13
4.313e-11
5.224e-05
6.159e-07
1.805e-07
3.975e-08
0.006629
1.643e-15
7.039e-07
0.003179
0.001127
1.294e-05
1.012e-13
4.344e-13
4.791e-14
0.0007226
8.421e-09
2.718e-09
0.0001291
2.574e-05
2.989e-07
4.392e-13
0.006667
2.438e-05
4.408e-07
5.827e-06
6.257e-07
0.0002156
0.003396
9.404e-12
1.816e-07
1.258e-07
8.098e-13
0.00292
3.634e-11
4.094e-05
5.53e-07
6.979e-07
0.006109
0.000113
6.988e-07
1.018e-09
9.142e-09
1.304e-13
0.003195
0.004491
7.907e-06
4.879e-08
2.022e-11
0.0001589
0.003052
0.006443
0.0002961
4.906e-10
0.006355
7.983e-08
1.562e-08
8.804e-05
4.7e-07
0.0001206
4.963e-12
7.951e-14
1.108e-14
8.625e-05
2.219e-09
1.039e-05
6.485e-08
0.001558
0.001488
5.801e-13
0.0008397
8.55e-10
3.833e-08
1.908e-10
9.106e-08
2.565e-05
1.837e-13
0.0007073
3.952e-07
1.268e-05
0.003453
4.941e-07
9.733e-05
0.002342
1.236e-06
2.819e-07
8.238e-06
3.947e-07
6.998e-07
6.727e-14
1.751e-15
0.002587
6.196e-15
0.002733
8.512e-05
0.0001142
0.0001742
9.127e-07
0.006704
3.093e-08
6.841e-14
8.895e-08
8.823e-11
0.0007554
6.21e-05
8.315e-08
2.545e-06
0.0008844
1.41e-09
0.00136
1.021e-11
6.186e-08
0.005364
7.253e-06
3.778e-07
0.0067
0.000425
9.888e-11
0.006694
2.4e-08
1.968e-07
4.348e-08
4.738e-06
2.567e-11
0.00286
0.0007542
5.51e-05
2.256e-09
1.121e-09
4.423e-09
4.808e-07
0.006683
1.529e-08
0.006685
7.454e-05
8.188e-07
0.0005049
1.268e-14
3.485e-07
2.361e-09
0.001662
3.287e-10
2.506e-05
0.0027
0.0001768
1.004e-07
0.006669
7.514e-06
0.006694
8.417e-10
6.952e-10
3.783e-07
1.378e-05
0.006618
8.145e-09
1.213e-08
1.977e-07
1.357e-10
2.611e-08
1.004e-08
0.0006478
0.0001026
1.093e-05
1.74e-05
9.716e-09
1.347e-06
0.0001066
1.834e-05
0.0001003
1.254e-06
2.605e-07
0.006623
0.00666
0.002109
0.0003035
5.485e-06
1.384e-08
2.947e-08
0.002615
5.589e-08
2.241e-06
1.469e-07
0.006697
9.313e-07
5.498e-05
9.522e-11
0.003265
2.53e-15
9.584e-06
6.414e-11
0.003788
0.0001063
1.51e-13
0.0003014
1.57e-07
9.336e-08
4.224e-08
2.285e-07
3.802e-07
0.006693
9.686e-08
2.288e-07
4.769e-06
1.568e-05
3.33e-06
4.658e-06
0.0001179
3.297e-07
8.454e-09
0.006684
0.0001892
6.435e-07
1.179e-11
7.217e-06
0.006701
4.648e-09
1.035e-10
0.0001632
7.211e-05
2.3e-06
5.274e-09
0.0001902
1.212e-06
5.467e-07
0.002178
6.892e-06
9.653e-06
0.005386
5.57e-06
1.55e-14
0.0003796
8.599e-06
2.415e-12
1.509e-05
4.537e-06
0.006689
0.0002968
8.288e-05
0.003777
8.179e-13
9.92e-07
0.006697
0.001134
3.46e-07
1.904e-16
0.006697
0.0002612
8.434e-11
1.544e-07
6.576e-06
4.559e-08
5.847e-09
2.325e-07
2.874e-06
1.721e-09
1.188e-12
6.166e-11
0.002234
1.177e-05
5.529e-05
1.943e-06
0.006683
5.927e-05
8.493e-07
0.0004255
2.081e-07
4.884e-14
3.648e-11
0.002595
1.204e-08
8.417e-13
0.00138
8.35e-09
0.0002664
4.009e-05
7.295e-05
2.204e-10
1.144e-13
0.006687
1.05e-08
2.203e-07
0.006697
4.235e-12
0.000367
1.173e-05
0.0001291
1.219e-05
2.089e-09
2.189e-07
6.058e-07
0.006697
0.003337
0.003056
7.987e-06
0.006669
4.944e-06
0.0003863
5.901e-10
0.003039
0.000337
6.712e-09
1.193e-10
0.001547
3.843e-06
0.006672
1.091e-13
8.653e-06
2.659e-09
5.43e-09
0.0001049
1.781e-08
2.265e-06
3.081e-08
2.447e-14
0.003657
1.287e-13
0.00667
0.006683
7.723e-05
6.063e-05
0.006683
8.147e-15
8.084e-08
2.741e-08
4.265e-10
1.089e-06
2.177e-05
0.005033
7.095e-15
0.0004715
2.974e-07
0.006659
2.725e-05
5.739e-05
7.202e-05
1.127e-05
1.249e-05
0.003093
9.109e-08
0.006655
6.876e-06
1.537e-09
7.431e-10
1.31e-12
8.775e-05
0.0002282
2.099e-06
0.006699
1.489e-07
5.136e-08
0.0003249
0.0002085
4.647e-05
3.614e-14
0.006002
0.006677
1.558e-06
6.952e-09
0.002166
1.604e-09
0.006701
1.232e-09
1.849e-06
2.105e-07
0.006701
6.971e-05
8.26e-10
6.007e-08
9.25e-10
0.0001119
2.585e-06
0.006671
5.974e-09
0.004806
1.195e-09
1.078e-14
0.0008429
9.646e-06
0.0008968
2.212e-09
1.141e-11
8.169e-08
8.744e-05
0.006656
1.171e-06
8.554e-05
0.006687
5.488e-09
3.631e-07
0.001189
0.006678
0.0001108
0.0001022
0.0001876
2.394e-08
1.225e-05
0.006691
5.738e-08
2.887e-07
7.344e-08
0.0005139
0.006696
0.006687
0.0003407
1.384e-05
0.001033
3.046e-09
1.834e-14
2.034e-13
3.223e-07
6.982e-13
3.711e-11
0.002286
2.729e-14
4.569e-07
1.158e-09
0.003147
6.883e-05
3.787e-05
9.697e-10
4.789e-10
1.536e-10
1.238e-07
0.0002473
6.738e-05
2.758e-08
3.17e-07
7.131e-06
9.36e-05
3.187e-06
5.927e-05
3.031e-08
0.004342
1.656e-05
2.141e-06
4.904e-06
1.259e-05
5.707e-10
1.242e-15
2.924e-12
0.006661
1.1e-11
1.224e-05
0.006649
4.583e-07
0.006694
3.217e-09
7.289e-07
0.002808
4.685e-09
5.418e-08
0.006707
3.764e-05
0.002739
1.395e-12
0.0009351
1.644e-05
8.726e-13
8.41e-06
0.006687
4.681e-11
0.0001557
0.0003924
1.718e-05
0.001175
1.064e-07
1.792e-14
3.477e-09
3.844e-07
0.0007676
3.615e-07
5.176e-06
0.006687
0.0001856
2.047e-08
3.065e-07
1.27e-06
0.006701
9.859e-14
6.072e-08
8.91e-07
9.19e-06
4.247e-05
4.03e-07
0.006652
0.0001418
4.63e-08
6.127e-07
4.904e-05
1.836e-07
3.21e-09
0.001865
8.834e-06
9.114e-06
0.001557
5.317e-05
0.002598
9.181e-07
1.28e-06
2.131e-06
0.0067
3.213e-09
0.002746
0.0001089
5.569e-06
1.358e-05
1.338e-09
6.161e-06
9.725e-17
0.0003917
3.857e-05
0.002622
0.006674
5.928e-06
1.343e-06
2.718e-11
1.113e-10
1.774e-06
1.06e-08
4.003e-10
1.08e-05
2.409e-05
4.376e-07
4.028e-09
2.782e-12
3.286e-06
0.0001376
3.074e-10
5.438e-05
2.99e-10
2.449e-06
0.001006
0.0005827
5.386e-08
0.006693
4.579e-06
6.517e-05
0.006689
0.0002419
2.896e-10
0.00261
1.043e-15
4.536e-09
1.448e-07
0.006688
1.432e-05
9.837e-08
0.003654
1.263e-05
3.056e-06
1.169e-08
4.819e-07
1.393e-09
0.006695
1.478e-07
0.006676
1.365e-05
1.658e-08
7.588e-08
6.046e-06
3.049e-09
8.148e-16
0.006607
0.006692
6.344e-07
2.075e-07
4.733e-10
3.689e-05
3.521e-07
1.876e-09
0.0003973
0.001208
0.00293
1.775e-07
8.539e-11
3.481e-05
0.0001633
0.006686
2.582e-07
6.165e-05
4.843e-06
1.116e-08
2.132e-06
0.002071
3.268e-09
1.055e-06
0.0004184
7.262e-08
8.786e-08
0.0001386
0.006682
0.006516
1.114e-08
4.093e-09
1.383e-06
0.003793
9.769e-06
0.003403
1.13e-07
1.465e-06
0.006604
8.942e-06
3.421e-05
2.352e-15
4.019e-11
1.457e-09
0.00668
3.556e-09
1.95e-07
1.331e-08
2.01e-08
2.496e-13
1.693e-05
9.273e-06
2.284e-07
4.021e-07
2.185e-09
1.968e-11
0.002126
0.003154
0.004087
9.176e-05
5.998e-16
0.0008579
0.001793
5.607e-09
9.337e-07
0.001215
6.86e-08
1.892e-06
3.739e-11
0.0007252
1.015e-07
6.89e-05
8.591e-06
5.832e-09
2.371e-15
0.0002297
5.283e-14
3.842e-13
0.00669
4.179e-14
5.678e-07
5.365e-10
3.932e-11
9.313e-06
0.0007784
1.949e-06
3.196e-07
2.226e-06
5.097e-05
0.0001377
0.0005202
5.844e-05
0.0004675
1.378e-05
1.659e-05
2.779e-05
0.00138
1.087e-13
2.139e-06
5.804e-10
3.077e-07
3.107e-09
0.006648
1.693e-09
2.009e-06
3.273e-11
0.0005952
2.722e-13
1.429e-08
2.407e-08
8.819e-05
1.294e-11
8.024e-05
7.633e-05
2.359e-05
0.0001532
0.0001026
0.0001418
1.313e-06
2.031e-05
7.944e-07
2.155e-06
9.547e-08
0.0001272
2.952e-13
1.517e-06
1.727e-13
4.034e-05
0.000253
3.334e-06
0.001555
0.0001466
7.622e-08
0.00669
0.003259
0.00669
5.81e-05
1.539e-07
3.82e-07
0.002908
8.52e-06
0.000152
5.629e-05
1.871e-14
9.568e-11
1.181e-13
5.09e-08
0.0001087
1.319e-09
1.321e-09
0.0001133
3.548e-09
0.006695
2.661e-05
0.003478
1.791e-07
0.0008007
0.006679
0.006673
2.852e-07
0.002102
0.000146
1.649e-14
1.327e-07
0.006672
0.006692
4.914e-07
0.0002522
6.578e-09
1.558e-12
0.005275
8.497e-06
1.515e-07
6.169e-08
4.375e-09
1.548e-14
4.333e-06
9.039e-05
7.445e-07
2.696e-08
3.639e-05
1.012e-08
1.069e-06
1.513e-05
2.322e-09
4.369e-06
7.698e-16
0.005773
3.264e-07
5.649e-09
2.131e-09
0.006695
0.0001121