/*--------------------------------*- C++ -*----------------------------------*\
  =========                 |
  \\      /  F ield         | OpenFOAM: The Open Source CFD Toolbox
   \\    /   O peration     | Website:  https://openfoam.org
    \\  /    A nd           | Version:  8
     \\/     M anipulation  |
\*---------------------------------------------------------------------------*/
FoamFile
{
    version     2.0;
    format      ascii;
    class       volScalarField;
    location    "45";
    object      omega;
}
// * * * * * * * * * * * * * * * * * * * * * * * * * * * * * * * * * * * * * //

dimensions      [0 0 -1 0 0 0 0];

internalField   nonuniform List<scalar> 
127143
(
1.528e+08
2.873e+08
3.278e+08
1.398e+08
1.173e+07
1.415e+08
4.635e+06
8.099e+06
1.294e+07
1.888e+06
6.817e+06
1.065e+07
3.857e+08
1.183e+08
2381
3.152e+05
3.958e+07
13.35
8.713
1.257e+05
24.67
2.853e+05
0.08423
376
3.073e+05
4451
2.309e+04
2.28e+04
1.552e+04
12.92
905.7
5019
2.516e+04
3450
0.04209
2.443e+04
102.9
60.87
254.8
8009
8.766
0.4422
0.3119
5.491e+07
13.04
2580
1.436e+04
23.93
384.5
303.4
1.983e+05
0.02531
33.82
0.1615
0.02092
1125
0.02091
0.6484
0.02218
0.1601
0.3044
9.219
105.2
0.02211
1164
0.4446
0.04423
119.2
117.6
0.08339
501.6
1.554e+04
13.05
0.02217
0.02179
1.578e+04
0.0227
58.45
1068
0.02222
1.569e+04
1.118e+05
964.9
4519
15.33
45.43
190.6
1.618e+04
0.3651
1311
0.0221
15.62
728.1
24.29
112.4
0.3582
0.402
1461
26.89
0.04376
0.02221
352.7
5978
12.46
41.92
28.45
137.2
0.08372
2.249
0.02132
1938
2.002e+04
45.99
10.83
0.02174
5.235
0.02291
0.02179
0.02262
1.152e+06
0.02134
945.4
134.1
0.1735
1.493e+04
9090
11.54
0.02333
81.53
1357
95.64
126.8
67.97
56.37
4.474e+06
89.25
0.05213
16.69
1.302e+04
0.0442
0.1207
0.02224
22.59
14.42
33.76
117.4
6.702e+04
0.02213
138.7
9299
22.61
347.5
92.34
0.06897
284.7
14.98
0.6474
1810
23.14
1742
508
3.737e+05
0.02211
94.55
3844
874.3
141.8
0.54
2408
0.02582
3284
14.33
8.424
62.27
0.2712
88.89
75.11
80.61
295.5
0.03291
61.87
0.03366
72.25
85.35
1272
9.048
0.0803
10.13
320.7
0.03237
42.66
113
0.04797
260.9
8.206e+06
11.26
0.0194
0.01934
8.832e+05
0.02177
0.02169
0.02595
3.673
87.38
4.437e+07
159.3
0.04877
43.53
12.93
0.02174
0.6979
19.75
0.02164
2318
178.4
9.14e+05
1.033e+04
46.95
69.2
0.04902
46.62
0.02184
359.8
37.6
2285
3613
2401
68.4
1069
16.35
27.23
0.03346
12.51
7.872e+05
26.7
0.0864
94.42
1.793e+07
0.02169
32.19
103.3
625.8
41.23
1691
108.7
9.128e+05
229.6
2.234e+04
6.814e+05
0.1007
4.748
3439
63.75
16.76
591.3
2.541
0.02329
1846
20.72
0.05121
11.54
0.02684
9.825
0.02218
80.73
741.7
459.3
593.9
0.6436
45.44
2079
0.2681
17.28
33.01
72.43
40.12
44.48
259.8
0.5102
14.24
0.07132
0.6937
12.15
0.02175
0.02173
7.561e+06
106.3
0.02174
267.4
0.0344
93.77
0.2139
0.08592
12.99
0.02166
7.995
691.9
461.8
41.37
39.91
1175
0.4037
0.2929
4.256
2739
124.8
42.79
0.02164
12.32
42.47
149.6
3405
1255
0.05598
0.02172
676.5
40.33
1267
0.3245
2.23
0.07925
635.4
0.02835
64.27
706.6
47.37
0.03096
152.4
580
40.93
12.03
0.02173
0.04174
0.01941
0.01936
0.06748
2.186
8.372
12.06
126
0.04358
47.03
33.5
37.51
11.44
272.8
432.3
63.89
1021
119
859.5
8.279
104.1
39.17
0.02765
353.1
17
84.31
0.02345
584.7
13.29
92.97
19.45
300
286.4
0.02192
0.02176
1.42
1110
0.511
1.06
0.0285
2156
326.3
0.03067
0.06744
544.9
6.186e+05
23.08
0.5339
26.37
5623
790.1
0.4033
0.02282
4.988e+04
0.03521
6722
11.72
31.18
0.02184
0.1911
1767
626.3
331.2
858.3
0.1948
728.1
0.02757
0.02647
4224
0.02184
22.49
64.74
0.03606
34.14
35.56
66.8
0.02222
259.5
59.39
1193
0.1213
19.91
106.9
104.8
39.38
2846
122.1
514.1
130.6
1.886e+04
245.3
0.07608
16.99
0.05788
0.2701
0.0818
508.7
0.05693
0.02115
243.5
130.6
12.55
178.5
0.02192
45.44
348.3
0.02498
0.02166
0.02172
259.8
0.05294
3.437
0.02374
1280
0.02172
673.2
1.51
19.67
25.38
583.2
29.48
1376
0.03572
73.78
1405
395.7
57.43
73.43
58.74
54.58
15.17
2.643
53.98
0.2026
0.02194
22.9
547.9
0.02078
19.35
5.756
0.174
44.43
0.04332
0.02028
220.7
4.032
1329
50.89
1.852e+04
597
307.3
1235
29.05
176
68.32
0.02163
1277
0.02226
432.2
173.3
37.43
127
1.384e+07
117.7
2.36
0.1081
4.659
0.02166
1.929e+04
0.02197
64.97
10.91
2.017e+07
1.01e+06
3.276e+06
0.02194
330.2
299.1
0.02172
11.55
183.2
102.5
15.43
26.73
605.4
19.07
1.248e+04
0.1715
23.36
6.654e+05
671
1072
2675
0.02205
20.76
2.514
16.13
0.022
1778
9683
1688
0.01964
23.12
0.09186
6351
44.53
4425
14.55
0.02236
501.3
31.66
0.02081
0.4056
106.9
572.4
288.4
668.4
1554
11.42
100.1
386.2
98.05
217.5
0.02191
5365
76.17
1399
81.38
33.84
0.02212
0.02207
0.0491
475.9
9.052
0.02172
0.02923
12.98
1311
36.84
30.07
2721
1.209e+04
6.254
0.02234
0.02134
1626
24.78
116
0.03167
1.48e+04
61.89
182.8
0.5254
2591
0.02172
32.31
42.36
23.97
0.02723
515.1
11.52
8.1e+04
0.02026
130.2
9920
0.02171
33.9
0.02173
191.2
47.9
0.02175
790.6
495.6
1837
84.56
24.34
778
732.3
54.97
225.7
584.9
293.4
134.8
49.12
1771
0.02674
962.8
0.02173
7.378
0.02356
22.64
0.02116
0.02174
1.061
497.4
39.77
0.02136
0.02115
907.6
7624
663.9
1148
10.84
3.17
25.03
66.75
36.31
360.4
1437
0.02138
241.7
32.58
0.8756
32.7
0.0222
0.02918
54.76
8398
67.83
4.3e+04
0.02349
0.03825
131.5
276.9
0.0257
1091
0.1183
0.0792
690.7
20.19
31.35
0.09282
3.463e+07
3033
55.02
74.74
102.7
146.2
1800
358.9
0.02437
68.64
620.5
21.55
0.02121
243.1
0.3034
0.1773
0.01963
0.02119
4.442e+04
0.1088
609.4
113.3
337.3
12.28
0.7604
1727
0.08018
608.5
0.02162
0.02089
7.121
0.0596
844.8
0.1765
3700
10.32
822.8
0.3072
20.02
0.03669
1314
0.04356
619.3
4.85e+06
70.64
93.86
21.53
0.02871
98.76
281.9
3.515e+04
10.44
13.06
36.1
7397
40.61
777.7
8.064
464.2
115.8
41.71
11.28
0.2631
7.471e+07
0.3024
0.02561
183.5
206.6
171.1
0.02154
172.9
8.378
36.21
0.04105
4.601e+04
208.9
2668
0.04631
426.2
131.8
320.6
134
0.03875
23.69
2516
805.9
17.56
0.02179
34
317.8
0.02182
45.74
1.58
131.4
115.5
0.3426
71.66
5371
362.2
0.01935
24.01
9.357
4917
996
0.1836
11.27
1289
0.01938
94.72
677.6
46.32
5.467e+05
48.65
1538
36.25
34.37
8.41
0.02193
5.587e+07
90.88
75.92
3690
40.75
393.8
182.2
402.9
0.02132
8.827
12.93
0.03875
241.8
422.4
139.9
130.2
0.02048
23.3
107
0.02163
0.02042
32.82
9.368
10.82
391
31.78
1.967e+05
19.8
0.1605
0.02123
45.45
119.2
773.1
2067
0.4741
0.05538
0.02195
1.971
1.77e+04
0.02125
0.2079
5184
101.8
4948
0.02626
30.82
105.3
0.0218
975.8
0.0212
306.8
1.856e+04
223
130.5
1.279e+04
0.02191
746.4
0.1033
1580
1257
1806
1.123e+04
0.1818
0.9078
1.289
8e+04
0.02178
70.24
1044
991.7
660.7
1.525e+04
0.05317
0.6676
1685
8258
4.345e+04
376.3
1.39e+06
605.2
2.557e+05
123.6
2977
8.958
3.43e+04
0.02265
163.3
0.02724
0.02651
21.28
0.02537
77.34
14.96
8.605
3.061
0.03817
925.8
201.3
0.02183
12.91
88.58
0.03677
873.5
1.514e+05
42.22
41.89
1980
15.95
609.1
0.02168
37.09
604.4
0.02325
655.2
75.76
8.876
0.02069
2.412
18.89
4.518e+05
12.11
1.531e+05
18.45
96.27
158.2
1.506e+04
361.2
0.02363
1.006e+04
0.277
0.02427
5.382
4.851e+05
30.79
706.6
21.22
8.533
2.941e+04
2.333e+05
380.9
0.02231
0.02183
41.46
16.68
161.9
666.5
46.62
5382
131.7
0.06476
5542
0.04646
7532
0.0216
25.39
3027
16.26
227.2
24.93
0.02177
0.0218
2519
0.1513
328.2
365.3
853
14.95
95.77
196.1
230.4
6.158e+04
29.41
1042
856.6
31.57
13.59
240.9
347.1
6076
1.783e+05
26.53
0.02154
0.02139
19.46
44.94
1.348
0.0208
77.84
25.37
1.279
620.1
72.74
455.4
2.289
0.02223
0.275
1.35
1.448e+04
2717
142.2
0.2556
64.77
1017
354.7
54.57
9.316
145.2
185.3
142.1
6193
0.02303
1.741e+04
1.811e+04
9.179
74.82
2420
0.02174
4.593e+04
7.034e+04
0.02186
0.02154
41.97
33.97
6.497e+05
707.5
157
844
737.8
0.3432
0.682
0.02259
916.2
19.72
398.7
8.709
7808
61.63
0.02867
4.612e+04
219.7
0.02172
277.3
0.02543
0.02164
50.38
0.09074
4.65e+04
0.02157
966.7
0.02181
515.4
0.07732
12.5
17.84
912.4
503.6
825
78.06
0.05513
0.03709
16.37
281.6
418.1
535.6
1.474e+04
878.2
7.036e+04
95.69
695.7
681.2
486.9
5165
0.1145
9.362
0.047
486.1
312.3
2446
0.06584
1265
13.8
125.9
209.1
46.25
2.373
1397
10.26
125.5
430.3
1380
1322
0.02105
45.57
480.1
0.0218
235.6
865.8
0.02066
5.928
620
0.03492
0.119
20.08
117.6
0.1501
0.01977
226.1
269.7
0.02162
0.08975
0.02937
25.07
325
26.99
0.03484
3027
1.393e+05
888
363.7
14.59
3.44e+04
0.07809
202.3
0.02176
50.9
30.72
177
210.5
3972
9817
0.02196
6.662e+05
1974
1364
90.75
1583
9.898
10.68
3143
119.7
0.03213
1.342e+06
69.48
401.6
1664
254.3
424.2
103.5
7464
153.4
135.2
128.7
602.7
424.2
27.09
1.237e+05
0.1022
206.8
0.08934
991.4
0.0197
0.02165
44.87
4.437e+04
28.04
1.425
5.257e+04
1520
0.02179
6633
153.2
111.5
1.543e+05
6.31
140.7
1.349e+07
13.2
1.138e+04
14.14
124.3
5094
408.4
1671
32.1
316
0.07808
18.29
45.82
166.6
27.96
141.3
10.96
3.028e+04
20.13
0.2627
15.07
0.4146
0.5714
32.66
1.178e+05
0.03567
1.049e+04
3072
186.5
87.19
0.0218
11.65
54.26
1.181
5058
1515
2504
0.02135
613.3
3173
42.3
4.489e+04
108.3
8.879
1082
0.02189
1424
135
1.392e+04
157.8
0.06726
15.95
0.02169
1.649e+05
5.217e+04
67.09
0.8879
24.39
0.02086
0.01977
859.2
24.34
7.979
0.06785
0.05117
0.05232
4.759
46.6
11.54
260.2
322.4
5.354e+04
1.204
1941
203.7
329
0.01981
847.7
13.2
143.3
6.637e+04
105.6
9.223
138.3
92.27
28.61
2.07e+05
26.1
62.49
11.8
9.542
11.45
311.5
1.718e+05
0.1158
2614
0.02118
386.1
2015
0.02031
4668
77.41
103.5
627.3
0.02138
1.076
4.349e+05
0.02174
291.2
811
128.1
1.781e+04
1.186
11.78
1472
4556
98.1
214.9
0.04921
179.2
1.209e+04
1.756e+04
377.7
91.17
0.02169
206.7
8.745
1697
424.6
9.417
96.96
0.0217
7.225
320.6
0.02203
10.24
0.02257
6659
10.62
3.676e+04
244.1
37.99
1030
39.93
219.3
766.2
3.406e+05
95.98
213
37.42
26.96
16.83
0.02211
139.4
0.02204
12.83
0.022
13.68
0.02147
303.2
176.4
0.02066
0.02161
945.9
0.1508
1340
0.08824
0.02003
26.27
46.57
0.03086
3.475e+06
5125
3.608e+05
226.4
73.32
391.4
249.3
58.86
2.894
8380
30.78
2227
689.6
58.63
53.48
7.93
0.02155
3.379e+05
68.1
6900
0.02178
6.054e+04
433.3
445.8
239.5
0.01973
0.01971
14.03
29.29
5.886
10.49
109.5
1.604
0.7965
2.673
11.1
3581
94.48
0.7352
32.24
11.57
1284
1002
145
437.8
20.36
0.02189
287
370.9
1.805e+04
31.74
0.03515
143.6
1.281
187.7
117.7
1856
16.5
0.02174
33.6
103.4
8.551e+04
1.745e+04
1.378
89.08
1714
0.1326
0.01972
2443
487.8
3.128e+05
0.05082
1.252e+05
167.6
0.02152
188.5
2017
10.2
0.09446
15.06
1319
102.6
77.19
38.45
3298
0.04056
783.6
1667
1099
0.057
0.05687
539.3
16.7
3.02e+05
202.5
1392
1733
3.397e+05
1.462
464.2
0.02461
0.02175
0.0215
20.33
0.02303
9.468e+04
0.02172
1.181e+04
0.2578
108.2
214.6
1023
0.09466
3.235e+04
0.3274
760.5
21.75
1.528e+04
0.02165
148.2
942
18.29
1.576e+04
2950
37.13
2255
4976
0.04558
0.0206
1.448e+04
0.07298
0.01996
0.2694
1.279e+04
0.0206
4770
0.02184
28.28
121.1
13.89
269.6
0.02091
27.56
762.8
102.9
0.05689
30.61
0.1495
0.02173
0.02122
40.22
6.154e+05
72.43
140
0.02402
4.007e+04
0.4054
0.07269
0.06082
3.086
214.8
836.2
0.02489
473.4
0.0222
42.88
0.02217
0.2239
304.9
45.99
5.986
1438
217.2
0.02119
50.98
3112
617.3
5.53e+04
1795
9.101
0.03366
9.666
5.388e+04
37.59
841.4
3.8e+04
0.07533
0.1252
0.02159
110.5
293.1
67.85
0.0218
844.6
0.02175
0.2026
223.9
0.02137
8.754
0.8513
100.1
15.48
1.064
429.2
0.0219
648.2
7909
11.73
8.406
232.2
0.04157
148.6
96.33
4807
199.1
93.02
1017
70.08
146.6
1.247e+04
0.07317
0.1319
225.9
0.03387
309.3
29.22
0.08257
122.7
0.0239
0.3617
6341
18.42
143.8
168.4
5.805e+04
103.4
1.794e+04
2.488
0.02066
1.801e+04
204.4
0.09253
452.6
0.02754
33.04
0.02223
10.25
1.105e+04
14.11
34.98
123.8
209.6
0.02187
107.6
0.2514
23.39
1869
0.02483
133.2
3404
0.02159
0.02501
141.8
0.07363
63.91
8.542
5.09
83.59
1.569
23.61
0.07091
3.562
76.33
0.02106
0.151
1518
5.915e+04
0.02086
492.5
1.69e+04
11.68
541
10.49
197.5
5.757e+04
0.05808
0.1116
217.3
0.02526
1256
43.48
29.3
6687
217.6
0.02442
206.8
8.88e+05
3.328e+06
175.4
253.9
214.5
2.168
19.38
26.96
34.51
1612
686
788.4
473.2
2.791e+04
30.5
5.031
0.0217
1922
4.991
52.07
0.1499
0.03866
217.7
187.2
8.592
0.02036
877.4
1786
117.5
420.6
17.34
6.264e+04
440.5
0.02616
277.2
2.313e+04
26.34
161.1
1.029e+05
0.01939
8207
2431
207.8
0.02753
28.49
12.72
1338
363.1
16.44
1996
0.03284
4.636
261.8
0.04938
13.24
0.02168
626.4
6668
187
2578
3.709e+04
32.94
2.155e+04
0.1078
2245
23.52
9.725
0.03492
9.764
60.63
23.25
153
0.06522
168.5
2.349e+05
6.279e+04
112.4
79.45
0.6956
0.7301
0.02185
0.02533
71.68
0.4123
0.02165
118.2
166.3
330.6
366
35.2
348.3
29.25
4847
6.685e+04
7.258e+04
0.08424
153.7
1.833e+05
10.65
6940
10.32
33.79
57.92
2.326e+06
20.44
31.03
0.04345
0.05388
1179
152.6
0.02173
0.02196
13.68
2004
17.18
166.3
3.853e+04
18.85
0.0238
1595
10.12
211.5
4992
1.428
7.018
33.53
114
2.196
111.6
0.02188
1904
8.909
1454
17.81
294.5
8018
8.587
1653
40.42
1594
178.9
6842
0.07317
12.6
77.6
37.07
801.4
243.3
1.332e+04
986.1
0.02165
318.3
10.47
1129
119.7
0.2643
13.63
0.07922
6643
0.04872
207.9
34.13
117.5
11.9
16.08
0.6845
6.426e+04
0.213
0.02445
2086
0.02091
22.02
0.03049
2.689
10.7
0.02151
0.3646
281.3
4711
0.02176
0.02303
11.08
41.85
282.4
0.151
49.89
91.08
1744
720.2
27.96
151.2
118
0.08942
143.6
6.628e+04
9.108
4483
577.2
9.735
5.701e+04
0.02172
0.0206
1.476
7.108
3.695e+05
0.02179
11.24
1669
3.356e+05
743.5
1002
0.01981
0.01953
489.7
123.2
97.73
216.7
0.03156
29.89
5.063
0.02222
1569
267.4
128.3
59.75
5914
8.548
8.965
0.01978
28.21
342.2
1450
792.9
100.6
1.722e+04
1443
50.82
152.2
459.9
118.6
0.0663
172
1.2e+04
0.02793
0.02652
608.9
295.9
1.383e+04
1.717
1345
157
0.1415
0.02173
22.2
0.02211
35.75
3.866e+04
41.09
0.1186
143.1
0.04416
2.439e+04
727.3
0.06565
33.2
30.29
140.6
36.53
194.1
134.3
65.57
40.26
65.2
38.59
12.95
2951
197.7
70.9
364.6
2.066e+04
221.2
1276
1353
3.175
2.137
51.26
2.101e+04
0.6895
188.9
0.02226
17.15
0.02214
186.3
8.371
2.138e+04
314.8
0.08097
3045
2.149e+05
2487
33.76
108.2
1563
5334
0.2644
39.68
57.31
1.375e+05
149.6
64.63
0.2778
0.2745
0.02174
16.39
1.703e+04
15.69
4195
12.24
0.07627
4120
0.01971
35.16
0.8752
18.84
2755
0.2081
8.295
8.497
0.03611
459.2
52.37
7.103e+04
2611
159.3
0.0214
68.79
120.9
1.174e+04
1288
65.86
7.925
72.95
0.02171
414.5
1409
12.54
83.09
30.44
5243
1059
723.9
107.6
0.8139
1.472
2.747e+04
9.506
0.06537
9.239e+04
0.06779
20.02
0.02173
0.02199
115.8
0.02188
1845
143.9
42.19
16.32
1026
4546
162.7
1890
149.8
16.87
5.936e+05
39.11
117.8
2.184
2.315e+05
11.49
1.874e+04
2.283e+04
0.04334
1695
1016
12.84
14.22
1.228e+04
744.7
2928
26.17
43.87
0.02594
8.452
0.02206
1.157
13.74
1189
89.48
45.92
3.794e+04
14.94
0.02188
414.2
53.53
18.77
86.13
50.97
215.4
875.9
3025
1.612e+04
474.6
272
1923
108.9
405.5
0.06534
2.896e+05
360.1
123.7
1.753
0.02155
248.7
476
19.45
12.49
1.741e+04
1384
331.2
85.35
54.36
4304
0.02162
1.62e+04
9.439
0.03526
87.07
856.7
0.02166
269.5
14.09
44.53
2.272e+04
36.31
87.32
2.325e+05
48.21
245.3
0.01967
0.01961
237.2
92.11
11.08
673
149.9
0.02151
5970
1459
29.29
0.02173
0.02189
35.11
72.78
247
7.852e+05
1001
0.02842
824.2
7.174e+04
0.0805
758.5
390.4
0.1034
2.613
3132
35.12
59.28
0.01964
0.0195
0.01946
0.0202
0.07729
34.1
51.49
1110
19.58
494.5
33.15
1983
0.02079
102.6
71.73
7291
1600
9059
454.5
100.8
360
24.23
176.8
0.09954
131.2
4.4e+05
306.5
6840
0.2725
354.4
0.02173
2.413e+05
103
460.2
16.75
0.03039
6.595e+04
0.02179
104.5
1122
0.04218
134.5
136
15.4
218
1.433e+04
0.03831
1236
0.02066
5.157
121.2
444.4
18.58
181.8
0.0215
0.0217
0.1846
1603
1693
0.2295
18.32
153.3
9.926
6739
387.4
12.83
9.822
30.29
84.3
0.1577
1.108e+05
0.233
0.02173
1.538e+04
0.02171
0.02165
0.4517
0.1074
1.212e+04
16.95
2177
36.04
417
0.02187
0.08248
717.6
233.1
13.62
0.05484
0.1972
5.179e+04
7093
0.02213
1.333e+04
8801
3.72e+05
0.06824
11.57
13.23
0.07475
0.02329
11.47
243.9
4.719e+04
0.06709
842.9
2.548e+06
0.02174
470
3134
145.7
0.02178
1070
8.945e+04
1.47e+05
7.861e+04
0.8557
121.4
7.954e+04
0.04882
132.4
0.02153
17.28
1262
8.355
588.6
7.615e+04
0.2479
250.4
195.7
0.02225
0.02856
627.5
1613
10.36
1.587e+04
116.6
3.869
12.3
24.45
607.2
86.17
0.02175
38.8
36.46
237.7
660.4
369.3
589
588.9
1.003e+05
1.151e+05
1.426e+06
659.6
0.0458
1787
0.0244
1384
2635
0.02175
7.411e+05
0.02221
313.8
1.783e+04
4191
132.8
256.7
824.2
738.6
0.01963
6.548e+05
202.5
0.05783
11.54
208.1
1.143e+05
1.996e+04
2.295e+05
10.99
619.5
6397
15.89
0.06648
120.6
1.301e+04
0.02088
76.03
97.63
411.6
83.45
52.36
11.08
6142
158.8
217.6
1.823e+04
0.07233
3960
0.07685
91.26
375.3
0.02317
0.08113
79.38
958.9
374.8
9.635e+04
0.05574
0.02171
13.5
268.7
4746
42.42
7.936
0.01963
0.02855
1528
0.01995
566
519.5
0.06425
177.8
73.54
2.734e+04
1.027e+05
6.038e+04
0.03231
782.3
137.6
177.8
12
9.208
2.365e+04
15.54
1772
286
1.227e+04
212.7
6.102
4.914e+04
29.55
109.9
25.27
0.05135
93.75
0.2121
0.02182
54.53
550.9
86.49
225.9
72.76
1.881e+05
2.948e+05
10.37
2.179e+06
0.2741
0.6543
0.03032
0.04895
89.43
0.02221
778
8.62e+04
714.2
7478
43.33
29.55
320.5
107.3
13.24
826.4
16.77
8666
197.6
0.02577
223.2
112.9
0.02204
0.03695
2625
0.02185
225.2
246.5
281.1
23.33
4138
0.09642
36.72
0.03556
1010
2.091e+04
1199
99.38
0.02143
686.1
0.02154
0.4371
234.6
34.96
5.727e+04
222.6
771.8
9.646
3758
0.5106
0.2047
24.01
576.8
0.02083
15.66
0.02185
1318
2583
288.9
104.3
0.02156
959.5
417.5
103.7
5.813e+04
245.7
3818
0.02276
41.84
11.37
8.585
362.5
47.94
0.07371
2.969
0.1099
111.9
105.3
0.02069
0.02025
0.02205
0.0352
0.1256
5561
753.5
0.02178
240.6
62.1
169.2
0.02194
182.8
0.05947
2620
0.09118
4.34e+05
129.9
3069
0.0433
0.08856
6.113e+04
0.02721
160.3
245.1
387.1
379.1
100.6
0.02181
262.6
795.6
57.25
120
38.43
19.35
36.61
131.9
1211
0.0215
17.57
83.79
7247
0.09348
0.02209
421.6
2181
23.46
21.95
33.68
997.7
0.04112
52.07
1137
10.87
373.8
109.2
0.02565
17.27
6.327e+04
75.25
334.6
7270
2.441
25.31
0.02166
0.0267
0.1172
0.04606
5.859e+04
171.8
0.02195
0.02237
117.5
3.039e+05
0.02194
27.82
2.157e+04
162.3
19.79
206
2673
106
38.33
862.6
1.143e+05
3157
0.02183
72.61
32.01
137.3
0.02139
0.5232
258.6
31.57
576.2
7.491e+04
7244
15.62
974.8
1.197e+05
9.667
1075
25.71
3.694
2.199
2449
4.161e+04
0.02157
307.5
136.8
0.02193
7483
17.08
2.946
0.06304
43.81
831.2
401.8
122.2
0.02168
0.02176
13.05
344.3
0.02001
27.69
0.0245
2773
10.61
16.49
547.8
2359
17.75
65.33
0.02139
7.324e+04
19.41
4512
563
0.06587
709.6
52.63
264.3
5.746e+04
7.941
5.368e+04
0.02075
0.02124
37.3
0.04577
0.02139
1.404e+05
209.7
477
6043
114.8
48.16
0.02797
1.362e+05
0.03996
140.5
0.02023
0.09181
128.1
56.66
63.84
39.78
8.873
1469
0.02046
60.56
6686
6806
9169
0.1207
58.22
34.87
0.02195
1498
421.4
0.8296
0.04124
164
5.911e+04
0.02187
0.0215
43.96
4198
10.86
2536
0.02206
9058
154.1
142.3
0.02208
0.06413
1139
334.7
3265
26.24
68.28
0.02044
839.7
0.03057
1133
9.584e+04
0.0567
248.1
11.01
1.418e+04
3.743e+04
1875
0.05172
0.02047
57.15
0.1504
0.02163
466.2
250.4
9.872
0.02033
0.06582
0.07031
0.02607
734
89.35
0.02173
856.6
146.1
2227
0.02579
0.02191
0.02163
0.05144
127.9
19.9
709.6
6.074e+04
3.597e+04
134
1.172e+05
5066
0.02278
5.176e+04
80.03
5144
8.92
0.1153
3.508
1.217e+04
1194
3444
622
0.05236
33.84
515.8
122
21.49
0.2101
393.9
0.1171
442.9
0.03605
42
42.33
27.01
0.168
1151
1.127e+05
8102
0.02061
5.883e+04
45.9
0.01994
256.9
0.02181
2701
91.51
0.1186
477.3
533.9
0.0223
2.982
8.389
1.554e+04
0.0223
0.1261
1.586e+04
12.59
0.02157
3796
41.42
0.0306
0.1188
15.01
185.5
7.114e+04
674
90.33
10.49
1673
0.5494
0.02169
0.0401
633.8
122.3
113.5
0.02207
1.625e+05
228
61
342
47.1
89.27
0.02017
0.05644
744.2
214.5
0.03829
157.2
805.2
9.466
2.237
8.729
9.897
0.03647
8.389
60.38
92.62
41.2
0.02205
1997
0.1631
48.99
20.68
8.51
6920
88.18
4.131e+05
13.22
0.4979
0.251
0.02118
16.91
49.26
4702
1879
227.3
487.8
3826
35.98
0.4095
83.85
686.8
1.036e+04
37.74
0.03708
1915
1.545
1704
30.83
10.05
31.81
238.9
0.02179
359.7
0.2454
0.02164
3.153
1908
1.289
2.814e+06
717.9
1337
0.02165
36.01
224.8
0.04889
25.38
41.89
4515
532.8
4256
0.02188
128.2
0.02065
8.466
339.8
713.5
19.53
790.2
2.1e+06
0.02148
0.02174
89.08
185.7
1535
3.927
119.7
879.1
20.75
14.58
0.02178
473.3
2892
0.0619
34.26
0.02156
171.3
0.04895
56.5
447.3
131.6
0.3176
2895
138.6
0.02521
722.4
161.3
0.703
0.02146
0.0227
488
4616
49.07
8.102
97.96
16.83
186.5
50.88
0.0194
0.1574
0.555
1.148e+05
3703
2188
0.02134
662
150.2
3384
2209
2.486e+04
9.383
30.6
148.1
107.1
801.1
5338
22.88
0.07329
9.845
0.03009
2.109e+05
0.02231
13.94
572
64.77
14.64
687.6
59.41
1.55e+04
12.96
1077
39.85
12.3
468.5
1.111e+05
33.17
6.219e+04
3.374e+04
0.02174
6.883e+04
262
1762
3412
38.73
42.42
386.3
110.9
38.5
0.03527
14.36
17.45
123.5
33.43
85.99
0.4408
4.88
32.69
7.111e+04
52.45
1.148e+04
122.3
684.4
0.02027
883.5
94.37
5414
12.08
2.313e+04
376.9
340
0.07341
4449
0.06461
20.56
41.33
0.06764
1.561
26.03
51.76
211.9
418
33.05
201.5
46.11
2.275e+04
47.44
3.805e+05
0.03496
39.71
282.5
9.147
0.04101
707.4
0.02173
0.02198
0.02173
64.52
161.6
1354
14.16
0.07606
51.17
0.03772
3.767e+05
3209
6.782e+04
251.3
0.05771
946.8
6897
0.0732
2563
0.02186
31
8.603
992.1
29.94
0.02128
0.02138
141.5
9.054
0.03636
7.271e+04
176.5
0.02095
0.0218
91.04
0.03066
747.4
1.264e+04
0.03088
16.5
870.2
561.6
472
7.606e+04
35.29
0.1426
68.99
304.8
0.1183
394.1
77.86
1.641
824.3
142.6
2.207e+06
0.02629
142.3
1.165e+04
2015
0.02183
40.71
0.02176
12.29
56.05
98.82
35.81
334.3
111.2
0.1637
2110
3068
1183
1208
1015
73.45
16.2
107.1
357.1
27.46
486
0.02214
6.457e+04
2.052e+04
2327
64.9
27.08
2842
725.6
0.2838
0.3746
7.395e+04
188
0.05465
0.03166
0.05182
400.1
812.5
25.53
5210
78.43
0.03699
171
101.1
76.84
481.8
3.924e+05
1344
146
647.5
47.8
117.9
3753
72.86
15.1
9.357
2315
37.88
0.2401
65.09
807.6
0.08169
136.9
0.2662
15.3
7.513e+04
1245
0.02204
1002
13.59
2.846e+04
1827
0.02137
0.09313
843.3
0.02903
43.84
2452
949.5
9.183
0.02172
0.1859
12.73
17.62
0.08052
423.2
0.02077
682.3
28.89
629.5
637.3
82.93
85.48
458.4
917.9
0.1626
114
0.02181
1.014e+05
0.03412
0.03094
611.1
0.02178
31.5
11.09
1.349e+06
0.02196
116.8
215.4
567.2
388.9
0.2486
88.21
38.29
365.4
3927
41.36
0.07299
0.02196
472.5
694.6
21.62
89.32
1982
4768
0.8164
0.02113
60.62
296.9
1.561e+05
89.74
101.8
0.6536
230.3
0.0215
30.1
8970
1962
0.02197
0.2116
1687
0.01979
116.9
2273
33.81
0.02195
0.022
8.221
0.02331
0.02013
0.02173
8.271
1448
2161
0.4543
162.1
18.14
16.53
0.02225
19.86
114.2
0.04193
0.6144
1851
13.44
0.02523
3104
58.45
7.894
6.458e+04
7.793e+04
0.02493
151.6
13.66
573.3
76.44
6728
0.02194
146
7.071e+04
10.96
657.1
0.8536
3305
74.59
201.4
29.02
2.848e+04
0.05169
2.212e+04
45.3
0.02544
0.02862
0.02005
388.8
31.76
4844
335.6
1.124e+05
0.07297
0.01942
203.9
231.4
0.07024
0.0218
1108
10.15
1841
56.63
2960
367.1
146.1
26.2
268
0.01972
3.591e+04
217.3
77.19
30.33
0.06882
0.02191
31.03
13.7
455.5
7345
68.25
0.03984
84.58
16.36
0.0573
0.02183
1788
203.7
9537
278.7
34.65
2.739
82.59
20.58
13.52
125.4
0.7753
0.1296
0.02192
87.41
2.852e+04
26.22
0.4317
8380
0.4998
0.02168
16.99
0.02874
0.02203
47.39
0.01937
0.01932
9.062
0.02011
55.76
9.702e+04
594.1
12.08
0.1327
0.02113
0.02197
47.08
217.7
68.18
6.945e+04
17.62
0.03015
10.29
62.87
4335
1.799
0.02198
2.617
97.06
0.02203
0.02136
104.2
244.7
0.05056
0.02808
95.11
0.0213
1.624
0.02148
3.923e+05
2.745
1562
9.538
0.02725
0.4113
8.998
26.37
800.5
20.33
105.1
13.81
0.02214
4.835e+04
18.7
232.9
0.02191
803.5
425.7
133.3
1176
0.2365
555.6
25.42
0.1349
6120
0.02205
8.497e+05
38.73
2.972e+04
0.02197
247
0.02173
0.0851
10.1
1.316e+04
14.1
553.3
15.58
0.1133
3460
0.1276
3232
5455
8.196
0.08616
0.05465
636.6
0.02162
7.942
31.03
60
40.13
0.02175
1.906e+04
0.03417
415.1
1071
63.56
2009
1.395e+04
22.55
1159
122.6
1.45
21.25
0.4659
0.02172
0.02181
982.7
11.98
2.223e+04
73.92
157.4
0.02179
89.98
0.02179
0.02169
0.03173
417.7
0.1036
15.02
0.03507
63.22
0.1816
91.26
291.2
2674
0.0252
460.4
380
127
0.1782
25.08
0.02187
114.4
0.4075
110.7
16.17
0.03354
249.6
1.499e+05
594.7
3119
32.63
3.969e+04
1914
4.619
94.65
2728
65.62
1.769e+05
742.9
35.5
85.56
173.6
52.79
2421
708.6
0.03892
27.46
0.09068
568.1
3.33e+04
113.3
3222
957.3
16.26
613.3
0.03331
251.9
54.49
8.159e+04
11.88
0.02242
27.19
19.95
169.1
0.05842
62.88
175.5
39.1
0.5978
452.4
82.66
1.466e+04
405.1
156.2
30.62
20.43
1680
0.02452
795.9
16.35
0.02352
114.3
116.1
597
926.9
280.9
0.02202
939.6
28.68
0.08055
2.962
668.7
2.507e+05
218.9
0.02084
0.02472
0.4039
526.2
91.57
0.0215
4.236
635.9
728.6
1.796e+04
0.02103
262
8573
83.31
1.927e+05
140.6
181.3
137.1
36.05
66.09
0.02321
112.5
7496
46.18
316.5
3.95
36.53
0.02166
0.07167
642.3
297.1
35.42
2452
136.8
0.0217
8636
120
0.1855
485.3
1.651e+04
2.663e+04
0.04222
0.133
0.02448
130.5
7124
1022
2684
179.8
281.1
0.02181
90.22
4.805
9.136
1.168e+04
0.5747
6.954e+04
56.65
5336
0.03297
199.6
3521
0.02169
160.8
207.2
212.6
10.54
0.0219
0.02169
0.0385
50.42
0.0217
12.4
2.457e+04
0.1099
23.19
640.3
0.03805
103.1
11.94
0.268
4999
121.7
2.089e+04
95.93
0.02174
401
6123
0.0217
1.388e+04
10.44
151.4
61.52
774.4
40.57
437.9
14.47
12.12
0.02194
13.35
0.02178
0.05493
3004
147.9
87.21
69.97
1.888
285.3
0.02174
0.01965
0.05277
225.6
66.65
125.6
6.964e+04
16.82
0.8574
527.1
0.9947
50.85
0.02135
1693
953.2
20.64
13.67
178.5
171.5
48.93
32.11
1.656
0.02239
125.3
23.37
142
4943
6.412e+04
754.9
0.02149
126.4
35.48
18.27
3.246e+05
0.02165
124
31.96
25
139.6
35
2.003e+05
138
50.77
932.9
8636
29.36
61.8
7222
4.139
0.02168
384.6
23.56
44.91
86.04
18.15
1.865
0.04494
1949
577.2
2480
31.84
1874
562.2
0.02171
349.9
49.78
101.7
14.33
0.01935
416
87.43
69.94
14.51
0.02133
847.5
13.24
14.4
104.8
215.8
171.3
63.16
739.6
649.9
0.01992
258.6
78.34
228.6
877
656.8
66.83
32.22
53.06
8.449
166.2
1414
6.597e+04
1369
559
3.758e+04
22.98
0.07694
9.055e+06
501.5
5163
0.03544
4855
4714
390.6
60.2
0.02192
2.701
0.02178
20.62
178.7
15.6
0.8842
14.91
1487
43.02
8.445e+05
15.96
358.3
2418
6.052e+04
879.7
284
24.72
0.08988
523
15.02
7.68e+04
189.3
0.3765
0.7063
4461
3.153
0.022
0.0217
59.72
95.6
0.04011
0.02017
0.02185
1848
494.7
3.607e+04
0.02155
0.03077
100.6
0.01976
0.0199
880.4
0.05454
154.1
943.3
0.05328
4911
27.53
77.73
7.984
44.26
0.04933
105.9
27.61
2.56e+06
62.78
1209
3277
4016
12.7
0.0307
10.02
1476
0.02171
10.55
363.5
1348
5.204e+04
562.4
63.06
1796
0.02487
392.4
9371
291
121.5
151.4
0.0716
63.32
15.44
6426
167.9
215.4
0.04817
2304
1032
0.03572
32.23
0.06684
42.53
0.02641
6264
6.649e+04
0.02756
1682
176.9
0.1533
1228
116.2
0.02233
2.269e+04
169
229.7
1688
0.03379
18.19
2.027e+05
109.5
1285
14.89
29.46
7.911
32.3
194.2
0.05827
5.716
101.8
173.2
51.52
19.95
78.92
16.86
187.3
942.5
122.3
14.55
2.861
0.0218
0.09215
1337
26.58
0.01936
8.359
70.97
14.46
194.5
114.9
79.66
0.0957
1841
116.9
0.1082
77.54
200.5
0.07305
1631
0.04031
2152
9.252
0.1869
0.06529
10.39
1361
88.89
0.02093
165.4
959.7
311.8
0.1915
0.02189
11.74
583.6
1852
29.14
90.68
12.82
1708
13.23
28.76
8.96e+04
9.736
4.535
1.813e+05
1240
14.53
19.4
0.02204
4.659e+05
0.02203
51.05
164.7
365.1
407.4
474.5
7.81e+04
9.566
41.59
26.44
1.098e+05
1004
16.22
1.68e+05
2.168e+04
932.9
196.3
0.1858
1.691
17.86
143.4
0.02187
657.6
8.228e+04
0.044
126.3
17.19
22.04
999.5
942.4
1.619e+05
4106
255.3
0.01954
0.01934
0.02178
1828
8010
0.511
0.02158
0.178
7368
24.08
1.79e+05
239.4
0.02206
1.55e+05
0.01939
5.237
11.91
0.03848
15.9
0.6276
4.275
0.05858
1065
27.58
100.5
145
9.504e+04
14.07
409.8
248.7
10.94
0.02213
2.534e+04
776.1
663
296.4
3300
552.1
349.8
0.05453
37.65
344
22.42
665.1
0.02906
1745
69.29
749.7
27.58
0.2692
0.3943
0.02181
308.8
71.61
313.8
809.2
11.81
2436
34.64
25.5
11.61
317.1
0.1835
3143
240.7
212.1
31.9
0.06415
24.3
0.08936
107.8
18.57
265.3
12.93
614
13.47
33.54
679.3
0.2263
6090
48.44
0.5932
0.08686
1.427e+05
525.5
353.9
54.39
2.169e+04
0.02204
2.355e+04
1119
110.8
149.9
195
139.4
192.5
22.24
186.3
218.1
419.2
9365
0.07178
0.02186
0.02175
147.1
510
7.791
9.893e+04
350.5
3.484e+04
3606
141.3
6272
7.345e+04
24.24
890.5
1881
33.35
7.657e+04
0.02166
253.1
1197
1167
0.02157
1104
33.55
262
449.7
282.6
0.02168
12.91
307.6
2845
0.02089
499.5
10.75
0.157
1.232e+06
0.03322
10.87
12.35
319
485.2
0.4457
24.2
6.466
515.1
1630
322.5
0.0194
16.45
2.629e+06
0.02515
0.02256
5449
3147
99.39
1627
0.06124
20.66
102.4
109.1
151.8
212.6
0.01999
32.15
9.626
0.132
0.02192
41.45
0.02121
3.277e+05
30.74
3.532
8.01
5.193e+04
0.02167
356.9
0.02
0.02216
511.6
0.487
3793
9.131
0.04066
84.59
1183
37.23
48.41
59.81
695
361.1
1528
1158
1591
1.636e+04
3278
98.63
757.5
396.9
239.9
0.246
0.02113
0.02118
1.213e+04
16.92
987.4
1.71e+05
0.02179
842.6
1.089
0.02038
22.62
1.822e+05
8.438
889.8
1.007e+04
0.02206
1681
67.21
24.2
10.09
18.3
4803
304
0.02174
1.858e+05
5023
0.06251
0.02342
4406
463.9
1965
922.5
171.4
681.7
0.02169
658.4
0.02118
437.4
940.1
1.648e+05
0.01956
0.01936
0.146
200.4
0.03092
20.12
6.2
20.6
43.55
145.2
392.6
0.04613
0.02717
7.134e+04
8.265e+04
159.9
1761
0.04674
1070
0.02214
170.6
4812
1892
8487
842.2
854.8
598.7
0.2917
19.64
48.06
0.02499
0.02176
0.02174
14.28
273.6
2376
1.206e+05
434.2
0.02445
1398
2869
785
1.311e+05
58.86
2022
893.9
280
0.05456
8.6
14.95
1.134
0.0818
2514
41.62
77.15
35.69
1205
0.3414
0.01974
6.957e+04
14.95
11.62
81.77
8.446e+04
17.5
0.02082
340.8
43.72
226
23.41
205.7
1354
4.256
280.3
12.88
0.06436
230.8
0.04391
0.077
2.406
1291
41.2
3120
32.25
84.88
67.62
0.02842
182.8
547.9
0.2427
102.5
6.008
6.933e+04
0.03011
0.02376
207.1
198.1
202.3
44.23
12.24
8600
0.06535
0.02183
62.22
7139
0.02449
0.5729
104.5
0.0216
7.408e+04
0.05337
75.1
121.6
169.3
1.607
1200
8482
9.137
0.05962
0.02172
27.92
86.77
234
20.82
0.02134
0.02019
0.02172
329.8
245
399.9
0.05362
2137
77.75
873.8
93.15
1795
0.6741
0.03019
1.51e+04
0.02186
2113
45.98
0.03005
166.3
248.2
1223
275.7
390.9
19
18.49
0.06965
8451
4471
6873
0.1748
0.7013
0.02169
7.487e+04
0.02159
698.8
6360
0.02213
13.51
142.8
911.2
0.0818
18.46
5.017e+04
23.18
0.02166
23.7
865.9
72.6
228.7
18.31
60.43
5.848e+04
11.06
0.02071
0.02258
4.21e+04
50.18
624.1
8.842
95.37
0.02117
0.02193
7.204
2.727e+05
6442
1098
551.4
2.693
503.3
5837
328.5
590.5
0.02189
1540
8.293
811
28.73
23.89
0.0216
1590
17.81
5.911e+04
6.2e+04
10.29
33.24
4.401
4064
0.02677
9.21
6.202e+04
1387
442
7140
2.527e+04
562.6
239.4
0.114
2524
696.4
2488
90.32
0.02628
4118
2.547e+04
0.02172
512
1.36e+04
1102
2376
60.13
24.03
266.7
80.43
0.03332
172
0.02211
185.2
0.09687
5.583e+04
0.1193
1.574e+04
89.28
681.9
17.06
15.98
1623
10.9
313.7
2917
107
68.54
9.161
44.86
201.8
2506
67.18
0.02439
101
46.86
443.5
329.7
200.6
955.3
79.57
0.02498
89.48
8.855e+04
24.17
12.5
334.2
0.03963
66.98
0.02157
106.5
2.271e+06
3.325e+05
1487
45.54
76.48
0.02099
0.05288
32.75
41.2
130
19.69
0.0218
29.47
131.5
55.52
96.73
0.02166
2618
5777
2.337e+05
8.865
51.4
184.8
1145
0.04363
471.8
3.977e+05