/*--------------------------------*- C++ -*----------------------------------*\
  =========                 |
  \\      /  F ield         | OpenFOAM: The Open Source CFD Toolbox
   \\    /   O peration     | Website:  https://openfoam.org
    \\  /    A nd           | Version:  8
     \\/     M anipulation  |
\*---------------------------------------------------------------------------*/
FoamFile
{
    version     2.0;
    format      ascii;
    class       volVectorField;
    location    "45";
    object      U;
}
// * * * * * * * * * * * * * * * * * * * * * * * * * * * * * * * * * * * * * //

dimensions      [0 1 -1 0 0 0 0];

internalField   nonuniform List<vector> 
127143
(
(0.0009548 -4.096e-05 0)
(-2.601e-05 -0.0001288 -1.603e-24)
(-5.292e-05 -0.0002598 2.841e-24)
(-6.88e-05 -0.000314 -1.232e-27)
(0.006147 0.001921 -4.346e-23)
(-5.813e-05 -0.0003225 4.051e-27)
(0.0171 0.01091 0)
(0.00895 0.004116 -5.941e-23)
(0.007299 0.003526 1.96e-22)
(-0.001431 -5.118e-05 0)
(0.01788 0.02471 2.042e-22)
(0.01141 0.007601 2.14e-22)
(0.0001246 -4.712e-05 -5.643e-25)
(-8.914e-05 -0.0003518 0)
(0.06125 -0.03838 5.115e-21)
(0.02116 -0.001973 0)
(-0.0001193 -0.0005858 -4.609e-24)
(-0.04024 -0.07408 3.232e-20)
(-0.1904 0.009361 0)
(0.03294 0.01004 0)
(-0.09822 0.02817 2.403e-20)
(-0.0003206 7.004e-05 0)
(0.9987 -0.1484 0)
(0.3549 -0.03443 0)
(-0.0003371 9.205e-05 -5.332e-23)
(0.1162 -0.01872 0)
(-0.01459 0.0001464 3.787e-21)
(-0.01461 -0.0003784 -5.677e-23)
(0.1259 -0.05461 0)
(0.3196 -0.08898 -7.097e-21)
(0.2869 -0.01769 0)
(0.1118 -0.01662 -1.814e-21)
(0.05431 0.01338 8.363e-22)
(-0.008264 0.002254 -5.292e-21)
(0.8832 -0.08541 2.082e-20)
(0.05281 0.01544 -2.296e-24)
(-0.1797 0.06398 9.045e-21)
(0.1557 0.02163 -1.459e-20)
(0.4408 -0.03974 -1.523e-21)
(0.118 -0.003254 1.201e-25)
(-0.1913 0.007431 0)
(1.058 0.439 -5.292e-21)
(1.039 0.4278 3.989e-21)
(0.0002601 -8.942e-05 0)
(-0.0503 -0.06703 -2.752e-20)
(-0.008614 0.001947 1.675e-21)
(0.1287 -0.05896 0)
(-0.2185 0.07853 -1.265e-21)
(0.4281 -0.07543 4.365e-22)
(0.4212 -0.03341 -9.369e-22)
(0.0252 -0.001785 -5.19e-23)
(0.982 -0.03601 3.046e-20)
(-0.06172 0.005926 0)
(1.153 0.1614 -7.807e-21)
(1.002 -0.0008349 1.898e-20)
(0.3194 -0.0792 1.081e-22)
(1.002 -0.0008299 -1.708e-20)
(1.118 -0.07962 0)
(1.01 -0.007596 -1.298e-20)
(1.152 0.1624 -1.517e-20)
(0.5269 -0.08316 -6.425e-20)
(-0.1694 0.07163 -1.516e-21)
(0.8036 -0.05303 5.216e-21)
(1.001 0.0004556 3.392e-20)
(-0.03541 0.002893 0)
(0.8841 -0.2421 -5.621e-21)
(1.068 0.1451 2.553e-20)
(0.7456 -0.05481 0)
(0.7566 -0.05425 1.433e-21)
(0.9902 -3.32e-05 0)
(0.3225 -0.02392 0)
(-0.01568 0.0001601 -1.782e-21)
(-0.1966 -0.03643 -6.954e-21)
(1.01 -0.007466 -7.214e-21)
(1.003 0.00267 -3.957e-22)
(-0.01576 -0.0002943 1.774e-21)
(1.006 0.03478 -1.091e-20)
(-0.1733 0.06016 0)
(0.3304 -0.08697 -1.662e-22)
(1 0.0005846 0)
(0.1225 -0.05658 7.267e-24)
(0.03627 0.009272 1.189e-23)
(-0.01574 0.003759 3.444e-21)
(0.145 -0.009953 0)
(-0.159 -0.005442 1.413e-21)
(-0.1894 0.06697 0)
(0.5216 -0.05098 -3.477e-21)
(-0.00145 0.0005061 1.17e-21)
(0.8834 -0.2396 0)
(0.9623 0.5847 0)
(1.003 -0.003997 0)
(1.198 0.06633 0)
(1.104 0.6742 0)
(-0.09854 0.02835 -2.475e-20)
(-0.04429 0.009007 0)
(1.047 0.07251 2.098e-20)
(1.059 0.4315 1.104e-20)
(0.1997 -0.01421 0)
(-0.1716 0.05784 5.413e-21)
(1.065 0.1453 0)
(1 0.0005683 0)
(0.4524 -0.08193 0)
(0.5808 0.5383 -6.054e-22)
(1.083 -0.1234 0)
(-0.1927 0.06858 -2.814e-21)
(-0.1701 0.05719 7.754e-21)
(0.7385 -0.1152 -2.78e-21)
(0.9895 3.233e-05 0)
(0.712 -0.2808 0)
(1.002 -0.0006126 2.675e-20)
(0.07132 -0.04254 -1.642e-21)
(-0.001316 0.0002544 2.24e-21)
(-0.06724 0.01634 -2.111e-20)
(0.2527 0.4794 0)
(0.9958 0.00797 1.537e-20)
(1.036 -0.1694 -5.085e-22)
(0.9863 0.03605 -9.857e-21)
(1.003 0.00278 -2.164e-20)
(1.006 0.03386 8.439e-21)
(-0.0007787 -0.003327 0)
(1.002 -0.000652 -3.741e-20)
(-0.01749 0.004625 -8.508e-22)
(0.7675 -0.2831 0)
(1.097 -0.08823 1.628e-20)
(0.1287 -0.05699 3.048e-22)
(0.07971 -0.01024 -4.496e-21)
(-0.1717 0.06393 0)
(1.032 0.007101 9.465e-20)
(-0.06686 0.004905 -2.84e-21)
(0.3213 -0.09268 -4.223e-22)
(-0.1058 0.03338 0)
(-0.04301 0.01042 -6.903e-21)
(0.9515 -0.0795 -1.046e-20)
(-0.1753 0.06085 0)
(-0.0001782 -0.001061 -2.56e-23)
(-0.109 0.03465 -3.648e-21)
(1.087 -0.04068 0)
(-0.1032 0.03025 6.301e-21)
(0.1571 -0.08895 -2.647e-21)
(1.105 0.006672 8.961e-21)
(0.9684 -0.1787 3.649e-21)
(0.985 0.0242 5.257e-20)
(-0.06077 0.01375 1.175e-21)
(-0.08444 0.02401 -1.809e-20)
(-0.0601 0.005838 -3e-21)
(1.217 0.4546 3.455e-21)
(-0.02512 0.1435 7.411e-22)
(1.001 0.0003954 -3.058e-20)
(-0.04118 0.009883 5.795e-21)
(0.4843 0.4214 -3.826e-22)
(1.081 -0.1145 -3.882e-21)
(0.4883 -0.09692 0)
(0.4098 0.04769 3.456e-20)
(0.8519 -0.1479 0)
(0.307 -0.2141 0)
(-0.1614 -0.005312 0)
(1.119 -0.07861 -5.814e-21)
(0.3113 -0.1092 0)
(-0.2186 0.07851 -2.356e-21)
(0.1731 -0.0155 1.036e-21)
(0.3597 -0.0219 0)
(0.02886 -0.01521 2.028e-21)
(1.003 -0.00364 -4.862e-23)
(-0.1075 0.03396 -9.071e-21)
(0.1872 -0.04822 0)
(-0.03918 0.003385 3.735e-21)
(-0.1539 0.05403 -4.724e-21)
(0.6976 -0.2425 1.4e-20)
(0.2209 0.06096 -2.238e-21)
(0.9406 0.03929 -6.723e-21)
(-0.01765 0.005103 0)
(-0.08491 0.02438 8.507e-21)
(1.027 -0.1797 -1.334e-21)
(0.891 -0.2581 -1.39e-21)
(0.9778 -0.0005074 3.65e-20)
(-0.07833 0.005411 8.104e-23)
(1.196 0.513 -5.716e-22)
(-0.06696 0.00513 -2.809e-21)
(0.4062 -0.04093 0)
(1.007 -0.01704 4.39e-21)
(0.89 -0.2584 -4.815e-22)
(1.011 0.008803 0)
(-0.0606 -0.01235 1.052e-21)
(-0.0783 0.004503 -8.085e-23)
(0.3322 -0.09715 9.028e-22)
(-0.1671 0.07118 2.701e-21)
(1.003 0.2811 -3.449e-21)
(0.2707 0.4954 -4.454e-21)
(0.3825 -0.03742 -2.776e-21)
(1.026 -0.0259 4.173e-20)
(-0.06933 0.007051 1.783e-21)
(-0.05888 0.005554 -7.243e-21)
(1.085 -0.03979 7.158e-20)
(0.3594 0.8487 -4.744e-22)
(-9.466e-05 -0.001097 4.269e-23)
(-0.1448 0.05354 0)
(1.003 -1.264e-06 0)
(0.9988 -3.674e-06 2.037e-22)
(0.01463 0.00794 0)
(0.9906 0.01121 4.705e-21)
(1.009 0.007306 2.444e-20)
(0.9344 -0.002497 1.036e-19)
(0.9827 -0.04268 1.242e-20)
(-0.1864 0.0664 -4.539e-21)
(-0.0001215 -0.000668 6.189e-25)
(0.6548 -0.0396 5.189e-21)
(1.025 -0.09701 -4.467e-21)
(0.9934 -0.1762 4.233e-22)
(0.4302 -0.1127 3.314e-21)
(0.9958 0.007692 -7.944e-21)
(1.176 -0.007769 1.905e-20)
(-0.1395 0.0005284 9.585e-22)
(0.9968 -0.004658 7.102e-21)
(0.2322 0.06214 -2.397e-21)
(-0.07525 0.02378 5.212e-24)
(0.01961 0.001875 0)
(-0.0162 0.005491 -4.461e-22)
(0.9768 -0.1907 -1.343e-21)
(-0.06626 0.01809 -1.311e-20)
(1.026 -0.0957 -1.228e-21)
(1.186 0.5074 -1.128e-21)
(1.001 0.004217 -1.288e-20)
(0.4759 -0.09342 2.74e-22)
(-0.04468 0.006579 3.199e-21)
(0.1598 -0.01516 0)
(-0.02582 0.008758 0)
(0.232 -0.05903 -2.272e-22)
(0.1997 0.0291 1.519e-20)
(-0.06725 0.02306 1.657e-21)
(-0.1831 0.065 6.848e-21)
(-0.09199 0.02566 1.525e-20)
(1.012 0.007796 -1.27e-20)
(-0.2027 -0.03607 1.39e-20)
(-0.0001847 -0.00746 0)
(-0.09291 0.02591 0)
(1.084 -0.07363 1.673e-20)
(-0.1072 0.03416 4.358e-21)
(0.002398 -0.0003683 2.634e-23)
(1.01 0.007116 -2.272e-20)
(-0.0697 0.009108 1.044e-20)
(-0.06037 0.005665 6.876e-21)
(-0.04879 0.002779 -6.322e-21)
(-0.1673 0.04591 -6.898e-22)
(0.3227 -0.1145 4.367e-25)
(0.2468 0.0347 0)
(-0.0006231 -0.003434 1.848e-26)
(0.623 -0.1266 -1.336e-21)
(-0.01475 0.0002735 0)
(-0.003663 0.001011 5.927e-22)
(1 -1.493e-05 -9.022e-22)
(1.17 0.3705 -1.293e-20)
(0.1179 -0.01315 3.105e-21)
(0.9334 -0.2199 0)
(-0.09386 0.02472 0)
(0.4294 -0.1036 3.772e-23)
(0.7296 -0.284 0)
(1.032 0.006552 -7.422e-20)
(0.4138 0.1356 0)
(0.9474 -0.2399 0)
(0.8575 0.2011 1.363e-20)
(-0.1312 0.04847 -7.143e-21)
(1.017 -0.01035 1.214e-20)
(1.193 0.06663 -1.988e-23)
(0.9845 0.02323 -4.224e-20)
(0.08818 0.016 0)
(-0.04457 0.003487 -1.982e-21)
(-0.06154 0.0204 6.149e-21)
(0.2661 -0.2012 0)
(0.5749 -0.1969 3.596e-20)
(1.185 0.1835 -4.997e-21)
(0.198 -0.03509 0)
(0.9737 -0.001211 -4.398e-20)
(-0.2174 0.07579 -1.628e-21)
(-0.06975 0.00915 -1.074e-20)
(0.9491 -0.05887 8.384e-21)
(-0.06971 0.007039 -8.737e-21)
(-0.0684 0.01682 0)
(0.4989 -0.07897 3.623e-21)
(0.9548 -0.001673 -6.429e-22)
(0.8983 -0.264 1.574e-21)
(1.003 -0.000317 9.84e-23)
(1.044 0.077 2.942e-21)
(1.084 -0.123 -1.18e-23)
(0.9956 0.001722 0)
(1.002 0.009224 -9.286e-22)
(-0.0004314 -0.001102 -6.196e-24)
(-0.07626 0.02284 0)
(0.9958 0.008794 8.548e-21)
(0.4583 -0.06482 3.17e-21)
(1.006 -0.01704 5.342e-21)
(0.4647 0.04397 -4.544e-20)
(0.9894 -0.1858 0)
(1.083 -0.07464 -1.652e-20)
(1.009 -0.195 0)
(0.9997 -0.005468 -2.967e-21)
(0.6988 -0.2938 -3.242e-22)
(0.2678 -0.02111 2.179e-21)
(0.008022 -0.03388 -8.716e-22)
(-0.1677 0.04639 2.662e-21)
(1.188 0.1836 3.556e-21)
(0.1928 -0.02115 -1.231e-21)
(0.932 -0.2244 -5.813e-22)
(0.8043 -0.2362 -9.238e-21)
(1.036 -0.1691 4.914e-21)
(0.1525 -0.01106 0)
(0.4961 -0.289 3.621e-23)
(0.9981 -0.1765 1.419e-22)
(0.9967 -0.00485 0)
(-0.06715 0.04678 -1.507e-23)
(1.017 -0.1057 -4.723e-21)
(0.6888 -0.1085 -3.385e-21)
(0.01001 -0.03312 -8.742e-23)
(0.2936 -0.07161 0)
(1.003 -0.0004383 7.383e-22)
(0.9931 0.001828 -1.915e-20)
(1.067 0.457 4.915e-22)
(0.03889 0.01821 8.394e-21)
(0.1841 -0.02008 2.889e-21)
(1.172 0.0775 2.271e-20)
(0.8998 -0.01316 -2.444e-21)
(0.9973 -0.1473 0)
(0.3119 -0.02123 -3.643e-21)
(1.059 0.01799 2.173e-20)
(0.9323 -0.219 -1.07e-22)
(1.047 0.4443 0)
(0.04164 0.0166 -1.672e-20)
(0.9193 -0.04793 4.462e-20)
(0.04831 -0.01449 -6.467e-24)
(0.3428 -0.003584 2.101e-21)
(1.16 0.5675 5.304e-21)
(-0.1926 0.07471 0)
(1.002 0.009117 9.952e-23)
(0.8885 -0.08622 -8.076e-20)
(1.003 5.051e-06 0)
(0.9988 -4.055e-06 0)
(0.8514 -0.1442 0)
(0.7234 -0.2819 -2.127e-21)
(1.026 -0.1799 -1.312e-21)
(-0.193 0.07501 -2.071e-21)
(-0.06272 0.01845 -2.393e-20)
(1.103 0.004308 -4.059e-20)
(0.9769 -0.191 0)
(-0.0498 0.005995 2.952e-21)
(-0.07002 0.006912 1.498e-21)
(0.2156 0.08605 -7.901e-23)
(0.4493 -0.06246 -2.073e-21)
(-0.02438 0.006092 -3.642e-21)
(-0.05641 0.01168 6.398e-21)
(0.2158 -0.02562 -2.406e-21)
(-0.06045 0.00579 0)
(0.2291 -0.02499 1.984e-21)
(-0.1206 0.04878 6.143e-21)
(-0.1012 0.02249 -1.752e-21)
(-0.0699 0.006946 6.484e-21)
(0.921 0.0392 0)
(-0.02783 0.006976 -9.487e-21)
(-0.09379 0.02466 -1.015e-20)
(1.214 0.4234 -3.049e-21)
(1.004 -0.005134 4.429e-21)
(0.3284 -0.002845 0)
(-0.2131 0.06928 -2.402e-21)
(0.8413 -0.0555 1.528e-21)
(0.3788 -0.0444 -4.314e-20)
(0.445 -0.03137 0)
(0.4262 -0.03565 -2.945e-21)
(1.002 0.002132 8.096e-23)
(0.9909 0.01098 -1.403e-20)
(0.895 -0.0004307 0)
(-0.01732 0.003114 1.74e-21)
(0.9596 -0.001158 0)
(0.4063 -0.06905 5.113e-20)
(1.06 0.0159 -4.688e-20)
(0.1448 -0.01583 -2.98e-21)
(0.4207 -0.02976 3.53e-21)
(1.026 -0.02446 0)
(1.141 0.0686 -5.179e-22)
(0.2897 -0.02515 2.516e-21)
(0.005551 -0.008915 1.987e-26)
(-0.1862 0.06508 -1.322e-20)
(0.961 -0.004563 3.693e-21)
(0.2491 0.01343 -6.899e-20)
(0.09262 -0.01194 4.528e-21)
(0.2444 -0.03099 0)
(0.93 -0.2267 -2.497e-21)
(0.9869 0.03467 0)
(0.04743 -0.003433 0)
(0.9479 0.1415 0)
(0.1253 -0.004023 0)
(-0.1448 0.05295 -1.911e-21)
(0.06825 0.02516 -4.686e-20)
(1.011 -0.005659 -3.756e-20)
(0.7726 -0.2099 0)
(-0.04302 0.01431 1.158e-21)
(0.4316 -0.1107 1.311e-22)
(0.3798 -0.03411 5.59e-21)
(0.2682 -0.01701 2.34e-21)
(0.7771 -0.2119 -7.782e-21)
(0.3113 -0.01885 0)
(0.92 0.03744 0)
(1.016 -0.01084 0)
(0.1296 -0.01101 -7.067e-22)
(1.001 0.004003 4.745e-21)
(-0.09027 0.02367 0)
(-0.06409 -0.01178 0)
(0.9528 0.1436 0)
(1.036 -0.1247 2.926e-21)
(-0.1973 0.07046 -1.426e-20)
(0.9294 -0.08501 7.697e-21)
(1 0.0004613 -8.148e-20)
(0.4379 -0.0452 0)
(0.7067 -0.3099 0)
(0.2152 -0.0283 -2.819e-21)
(0.9697 -0.1775 -3.76e-21)
(-0.2171 0.0791 0)
(0.7825 -0.2877 0)
(-0.04561 0.009266 -6.309e-21)
(-0.1217 0.03835 -1.44e-20)
(0.1701 -0.03273 0)
(0.7228 0.08461 6.836e-21)
(0.5401 -0.218 -1.062e-21)
(-0.1585 0.05624 0)
(-0.01749 0.006112 -1.693e-21)
(-0.05955 0.01815 0)
(1.003 0.000192 -1.714e-22)
(-0.1831 0.06476 -8.473e-21)
(0.9068 0.2458 -6.438e-21)
(1.033 0.4162 3.532e-22)
(0.9371 -0.1676 -6.778e-21)
(-0.05151 0.003479 6.404e-21)
(1.006 -0.1199 1.585e-21)
(1.003 -0.0001595 0)
(-0.06256 0.01908 0)
(-0.09613 0.02216 0)
(1.19 -0.01824 1.088e-19)
(0.8636 0.1597 6.013e-22)
(1.002 0.002094 -3.002e-21)
(0.9977 -0.1543 2.958e-21)
(-0.02611 0.006064 -6.72e-21)
(0.9826 -0.03481 -1.162e-20)
(0.9995 -0.00549 0)
(0.9989 -0.0009487 -3.588e-21)
(0.4503 -0.03584 1.515e-21)
(1.086 -0.04554 -2.504e-20)
(0.7236 -0.2872 3.065e-21)
(0.9607 0.02687 0)
(0.2125 -0.01535 -1.422e-22)
(0.9911 0.0008437 4.321e-20)
(0.3636 -0.2483 0)
(0.8785 -0.003885 -1.648e-21)
(-0.1393 -0.001099 9.353e-22)
(-0.1211 0.0386 0)
(0.2847 -0.03703 -8.854e-24)
(1.054 -0.1258 -8.129e-21)
(-0.01731 0.002945 9.796e-21)
(0.8598 0.06933 3.139e-23)
(-0.1955 0.06801 -1.535e-21)
(0.1845 -0.02235 -1.265e-21)
(-0.05567 0.003231 0)
(-0.2039 0.07249 0)
(1.05 0.1303 3.917e-21)
(0.9756 -0.08298 3.512e-21)
(-0.03569 0.009353 6.903e-21)
(-0.06565 0.03761 0)
(0.3225 0.4436 -2.13e-20)
(-0.04344 0.009056 -5.092e-25)
(0.9925 -0.000708 0)
(1.002 0.02294 0)
(-0.07912 0.0155 0)
(-0.0248 0.006848 3.74e-21)
(0.9996 -0.0001219 0)
(-0.1746 0.05965 5.694e-21)
(1.187 0.08114 1.91e-20)
(1.097 -0.08662 -2.463e-20)
(0.05656 0.01847 -2.777e-21)
(1.028 -0.08043 -7.209e-21)
(1.003 -8.828e-05 0)
(0.2454 -0.1565 -1.443e-20)
(1.184 0.08076 -1.835e-20)
(-0.06916 0.02404 -1.038e-21)
(0.01072 0.009414 7.592e-22)
(0.1218 -0.06425 2.273e-22)
(0.3597 -0.249 -1.685e-21)
(-0.03623 0.005144 1.793e-21)
(0.2946 -0.0694 0)
(0.7123 -0.3058 0)
(0.8926 0.1641 -5.95e-22)
(0.07164 0.01445 -5.694e-22)
(1.009 0.002085 2.981e-20)
(0.2004 -0.01712 -2.04e-21)
(0.9744 0.005636 3.826e-20)
(1.175 0.5149 1.748e-22)
(0.5588 -0.05522 3.06e-21)
(-0.06599 0.005657 0)
(1.22 0.4407 1.536e-21)
(-0.0002049 -0.001123 0)
(-0.09884 0.03154 1.012e-20)
(0.2786 0.2762 5.729e-21)
(1.106 -0.02399 -2.948e-22)
(0.9701 0.6725 4.948e-21)
(0.996 -0.00294 -4.941e-20)
(0.119 -0.06687 0)
(1.002 0.02305 3.917e-24)
(-0.1587 0.04742 0)
(-0.1427 0.05347 -6.735e-21)
(-9.881e-05 -0.0005983 0)
(0.001151 0.0003284 3.621e-23)
(0.001004 -0.0003709 -1.135e-23)
(1 -0.0002685 -2.534e-20)
(-0.02871 0.00723 0)
(0.4454 0.09328 0)
(0.9933 0.00199 3.745e-20)
(-0.2095 0.07371 3.553e-21)
(0.7367 -0.2727 3.592e-21)
(-0.1332 0.04493 9.396e-21)
(1.053 -0.152 0)
(-0.1191 0.0377 0)
(0.279 -0.03433 -1.893e-21)
(-0.1743 0.05976 -5.788e-21)
(-0.005699 0.001071 4.143e-22)
(0.9976 -0.0004147 0)
(-0.1149 -0.01145 -1.233e-21)
(-0.0001634 4.129e-05 0)
(0.4869 -0.1993 6.749e-22)
(0.2109 -0.02055 8.826e-22)
(-0.01937 0.00538 4.141e-22)
(1.01 -0.006997 -1.125e-20)
(1.085 -0.114 -4.207e-21)
(0.9919 -0.04282 -3.216e-21)
(-0.05749 0.03652 1.569e-20)
(1 -0.00337 0)
(0.1771 -0.01374 0)
(0.29 0.1359 0)
(-0.05422 0.01835 -1.85e-21)
(0.9988 1.396e-05 0)
(-0.07901 0.01547 -8.355e-21)
(1.068 -0.09934 -1.212e-20)
(-0.001719 -0.001105 9.066e-26)
(0.6817 -0.3092 1.617e-21)
(0.2125 0.06284 5.233e-22)
(-0.05651 0.04225 -5.34e-21)
(0.9731 -0.00155 2.476e-21)
(-0.1026 0.03595 -1.57e-21)
(0.7923 -0.2981 -2.275e-21)
(0.9995 -0.0001221 2.766e-21)
(0.9312 -0.2262 3.364e-21)
(0.8352 0.09916 -2.85e-20)
(0.2917 -0.0241 -1.979e-21)
(0.4583 -0.03086 2.292e-21)
(-0.02253 0.006216 -3.667e-21)
(-0.04236 0.01457 7.798e-22)
(-0.1441 0.05307 3.392e-21)
(1.081 0.1793 0)
(0.5921 -0.236 9.254e-22)
(-0.1554 0.05419 0)
(-0.06576 0.0201 1.84e-22)
(1.017 -0.001894 -6.021e-21)
(0.1386 -0.004968 2.297e-22)
(-0.09565 0.02978 -5.665e-21)
(0.2069 -0.03298 3.359e-21)
(0.8806 -0.09426 -7.05e-21)
(-0.1896 0.05747 2.682e-21)
(1 0.00099 0)
(0.9998 0.001237 1.429e-20)
(0.8642 0.1929 -2.209e-20)
(-0.02354 0.005766 -1.738e-21)
(0.9482 0.7048 0)
(0.992 0.002418 -2.554e-20)
(1.003 -3.216e-06 -4.292e-22)
(0.8057 -0.2907 0)
(0.3841 -0.1691 0)
(-0.2 0.07154 4.522e-21)
(0.7108 -0.3063 0)
(-0.04315 0.01481 2.791e-21)
(-0.01226 0.004064 0)
(0.981 -0.2164 1.54e-22)
(1.005 0.02998 0)
(1 -0.0003119 4.711e-21)
(-0.05953 0.02108 1.616e-21)
(-0.1582 0.05249 -5.147e-21)
(0.8569 -0.2014 -3.247e-22)
(1.002 -0.0008222 7.895e-21)
(-0.01612 0.0003439 8.596e-22)
(0.96 -0.09425 0)
(-0.04889 0.01413 6.685e-21)
(0.9611 -0.003353 8.957e-21)
(0.1401 -0.01657 2.611e-22)
(0.9919 0.002174 4.693e-20)
(-0.2 0.07172 -2.363e-21)
(-0.07144 -0.0155 0)
(0.03052 0.03258 8.789e-22)
(1.001 -1.128e-05 2.215e-22)
(-0.07403 0.02488 -5.821e-21)
(-0.1306 0.0482 -1.703e-21)
(0.05159 -0.03189 -2.862e-21)
(1.003 -8.183e-05 -1.156e-21)
(0.7644 -0.1215 2.806e-21)
(-0.01643 0.005473 2.075e-22)
(0.999 -0.001007 0)
(1.039 -0.126 0)
(0.9929 0.007203 -8.934e-22)
(0.5709 -0.03631 3.015e-21)
(0.02591 0.01447 0)
(0.9957 0.001573 2.592e-20)
(-0.01883 0.004805 8.201e-21)
(0.3225 -0.04437 1.603e-21)
(0.008985 -0.03586 0)
(-0.05567 0.008484 -9.909e-21)
(-0.04807 0.01408 -2.363e-21)
(0.2422 -0.0255 -5.939e-21)
(0.2526 -0.02952 -1.86e-21)
(0.2072 -0.06236 -1.906e-20)
(0.4675 -0.0435 -1.314e-21)
(1.123 0.6884 6.853e-22)
(0.4929 -0.02088 -2.626e-21)
(-0.1125 0.03144 -1.973e-21)
(-0.02166 0.00835 -3.362e-21)
(0.1707 -0.01529 9.931e-22)
(1.002 -0.0007965 0)
(0.3063 -0.06336 4.649e-22)
(0.9945 0.001792 -1.07e-20)
(0.2304 0.104 -1.532e-20)
(1.033 0.02196 3.626e-20)
(-0.0587 0.0139 1.652e-20)
(1.003 -0.0001872 0)
(0.9957 0.00862 2.159e-20)
(1.121 -0.0785 2.747e-20)
(0.5494 -0.2224 5.512e-22)
(-0.07983 0.02166 1.009e-20)
(1.003 -0.000413 6.932e-21)
(1.002 -0.00109 -1.098e-20)
(-0.07214 0.02438 -1.675e-21)
(0.02696 0.005158 0)
(-0.01915 0.004516 3.586e-21)
(0.206 -0.01685 -3.391e-21)
(-0.1974 0.02831 0)
(0.7232 -0.2863 -2.813e-21)
(-0.1242 0.03984 -1.333e-21)
(0.7049 -0.3103 0)
(-0.07001 0.006949 -2.084e-22)
(-0.05275 0.01639 -1.665e-20)
(-0.03551 0.002774 0)
(1.003 -0.0004351 -1.224e-21)
(-0.05648 0.003357 6.42e-21)
(-0.06944 0.008052 8.075e-22)
(1.036 -0.1637 -1.236e-21)
(1.183 0.1352 0)
(1.001 -0.002748 -4.07e-21)
(1.003 -1.605e-06 4.142e-23)
(0.06692 0.01739 -1.55e-20)
(0.1825 -0.1034 2.579e-24)
(0.07114 0.01596 2.868e-21)
(-0.008556 0.002624 3.554e-22)
(1.032 0.02267 0)
(1.003 -3.493e-05 9.67e-23)
(-0.106 0.03472 0)
(-0.05669 0.004499 0)
(0.9373 -0.002262 -8.227e-20)
(-0.03035 0.003351 -1.779e-21)
(1.035 -0.1393 0)
(0.9924 0.01348 -1.993e-20)
(-0.04177 0.01291 6.287e-21)
(0.9627 -0.2301 -2.401e-23)
(-0.06906 0.008022 5.263e-21)
(0.8496 -0.174 -3e-20)
(0.0002486 -7.906e-05 0)
(-0.02752 0.009126 0)
(-0.2051 0.07295 -1.348e-21)
(-0.1947 0.06843 2.884e-21)
(-0.07701 0.02276 0)
(-0.04719 0.007113 6.29e-21)
(0.1591 -0.02224 -5.81e-22)
(-0.03262 0.004921 0)
(0.9735 -0.02889 -8.176e-21)
(-0.07003 0.006312 1.26e-20)
(-0.004672 -0.02083 0)
(-0.09149 0.02426 -1.397e-20)
(1.002 -0.0007869 2.513e-20)
(0.5317 -0.08245 -2.722e-21)
(0.8647 -0.2353 0)
(0.5655 -0.005788 -2.619e-20)
(0.9988 -2.911e-07 3.629e-23)
(1.002 -0.0008149 -3.348e-20)
(0.002976 -0.005051 0)
(1.106 -0.0215 -8.06e-21)
(0.3482 -0.06652 1.275e-21)
(-0.05509 0.00646 -4.245e-22)
(0.5141 -0.2898 0)
(-0.06827 0.04607 2.033e-20)
(1.162 0.2063 0)
(0.181 -0.01484 9.922e-22)
(0.6923 -0.02313 4.287e-20)
(0.4383 -0.1195 0)
(1.008 0.001857 -1.079e-20)
(1.003 -0.0004661 0)
(1.177 0.394 0)
(0.9158 0.2475 0)
(-0.01924 0.003639 4.282e-22)
(0.5727 -0.01783 0)
(0.2413 -0.09912 1.877e-21)
(-0.2052 0.05308 0)
(0.4549 -0.1905 -1.493e-21)
(1.172 -0.008481 1.208e-19)
(0.434 -0.04701 6.162e-20)
(1.002 2.649e-05 -8.246e-23)
(0.2384 -0.01521 -6.482e-22)
(1.031 -0.07949 -1.132e-21)
(0.3986 -0.0931 1.275e-22)
(-0.0002332 -0.001212 6.067e-24)
(0.9358 -0.147 9.481e-22)
(0.123 0.02461 -1.751e-20)
(-0.1872 0.06571 1.323e-20)
(1.001 -1.2e-06 -2.104e-22)
(0.8039 -0.08582 1.284e-22)
(0.4155 -0.03513 -3.867e-21)
(-0.01554 0.005322 0)
(-0.1292 -0.01063 9.109e-21)
(-0.08986 0.03348 1.076e-20)
(-0.06996 0.007015 -3.178e-21)
(0.535 0.4579 0)
(-0.1212 0.03803 1.372e-20)
(0.4526 -0.2455 2.663e-21)
(-0.1819 0.05451 -1.779e-21)
(0.4739 -0.1163 -7.087e-25)
(0.737 -0.07829 3.773e-21)
(1.028 -0.1071 2.243e-21)
(-0.1707 0.06384 4.879e-21)
(1.011 -0.1754 -2.391e-21)
(0.001237 -7.373e-05 0)
(0.8621 -0.2366 0)
(0.9411 0.03568 3.312e-20)
(0.7369 -0.1688 1.834e-22)
(0.6711 -0.2914 2.414e-21)
(0.5646 -0.05861 -8.749e-22)
(1.005 -0.0003297 0)
(-0.03452 -0.01535 -9.777e-22)
(-0.1148 0.0492 -1.239e-20)
(-0.201 0.072 -4.236e-21)
(1.004 -2.133e-05 -1.54e-22)
(-0.008371 0.003131 0)
(-0.06348 0.01999 0)
(0.1407 -0.01843 4.391e-21)
(1.002 3.141e-05 4.758e-22)
(-0.03046 0.00475 3.724e-21)
(-0.1384 0.04384 0)
(-0.02964 0.005482 6.767e-21)
(-0.06442 0.005702 -4.794e-21)
(1.002 -2.375e-05 -4.079e-22)
(-0.2039 0.07397 -6.902e-21)
(-0.004118 -0.002668 0)
(-0.02341 0.006936 6.729e-21)
(-0.09128 0.02301 0)
(0.9894 0.01198 -5.588e-21)
(-0.04854 0.006007 2.696e-21)
(0.06222 0.08462 0)
(1.016 0.002871 -1.198e-20)
(0.9843 -0.1838 -1.335e-21)
(0.9914 -0.2038 0)
(-0.04867 0.007034 -6.456e-21)
(-0.1001 0.03154 0)
(0.9322 -0.2229 -1.957e-21)
(0.9246 -0.1455 0)
(0.1023 -0.0129 6.396e-22)
(-0.06849 0.02212 0)
(0.9993 -1.513e-05 -4.333e-22)
(-0.2041 0.07397 6.597e-21)
(-0.1916 0.07387 6.837e-22)
(0.1228 -0.009682 0)
(0.2354 -0.03281 2.135e-21)
(1.157 0.1562 0)
(-0.2088 0.07325 0)
(-0.04495 0.01548 2.015e-22)
(0.9991 5.775e-06 1.981e-22)
(-0.1382 0.04721 -9.403e-21)
(-0.04228 0.01244 0)
(-0.0007537 0.008369 0)
(0.0002877 -0.008796 -6.648e-24)
(0.005519 0.009357 -2.858e-21)
(-0.05506 0.0191 2.894e-21)
(-0.07013 0.01493 -2.59e-21)
(-0.1575 0.03678 0)
(0.9734 -0.2226 0)
(1 -0.0002582 1.24e-20)
(5.282e-05 -2.085e-05 -4.297e-24)
(-0.09454 0.0299 1.139e-20)
(-0.05752 0.00903 9.68e-21)
(-0.04374 0.01563 8.458e-22)
(-0.2118 0.07597 -9.433e-21)
(-0.1048 0.0367 6.235e-21)
(-0.1001 0.0332 -2.896e-21)
(0.3484 -0.02631 0)
(1 -0.0002917 0)
(-0.1231 0.02794 0)
(1.075 -0.1305 -1.983e-23)
(1.002 -7.634e-06 0)
(-0.07964 0.02559 -9.268e-21)
(1.178 0.5147 0)
(0.7204 -0.1102 2.586e-21)
(0.7812 -0.2801 -1.087e-21)
(1.003 -4.576e-05 -4.613e-21)
(-0.1262 0.04082 0)
(-0.07792 0.00851 0)
(1.009 0.002112 -3.474e-20)
(1.003 -5.095e-05 0)
(1.18 0.1329 0)
(-0.1748 0.07293 5.629e-21)
(-0.1977 0.0295 -2.113e-21)
(-0.1086 0.03812 2.96e-21)
(-0.2023 0.07263 6.322e-21)
(0.03212 0.0006458 6.131e-24)
(1.059 -0.1385 0)
(0.7096 -0.1719 -2.305e-20)
(1.002 -0.0008246 0)
(-0.1613 0.05417 -6.71e-21)
(-0.1689 0.05975 0)
(0.2943 -0.01746 -1.951e-21)
(0.1713 -0.01377 0)
(0.6999 -0.24 -1.318e-20)
(1.003 -0.0002536 0)
(1.01 -0.006645 1.736e-21)
(0.9918 0.007092 2.978e-20)
(-0.01513 -8.433e-07 9.244e-22)
(1.002 -0.0007739 4.419e-21)
(1.165 -0.0231 -4.699e-20)
(0.2126 -0.128 5.239e-22)
(0.8103 -0.1038 4.989e-21)
(0.1086 -0.01798 -2.199e-21)
(1.002 -0.001031 0)
(-0.1143 0.003174 -1.73e-21)
(0.796 -0.09621 -3.213e-21)
(1 0.005061 0)
(0.2204 -0.02597 2.223e-21)
(0.9997 -0.0001463 0)
(0.5712 -0.2925 4.195e-21)
(0.005407 0.003308 -1.769e-21)
(-0.04354 0.004999 -9.093e-23)
(0.3448 0.04749 0)
(0.09631 -0.002253 2.358e-22)
(1.002 -0.004839 3.277e-23)
(-0.02205 0.006061 0)
(0.8419 -0.1837 -7.897e-21)
(0.1828 -0.01318 0)
(0.005367 -0.02248 -7.98e-22)
(0.167 -0.0199 1.002e-21)
(0.3924 0.5456 -9.506e-22)
(1.156 0.1577 -7.137e-21)
(1.013 -0.1842 1.348e-21)
(0.768 -0.2748 5.423e-23)
(0.02991 -0.0021 0)
(0.9992 0.006003 0)
(0.3532 0.03348 3.121e-20)
(0.3803 -0.1226 0)
(0.3472 0.0849 2.27e-22)
(-0.004325 -0.01998 3.841e-22)
(0.06156 -0.0111 0)
(1.003 -0.0002354 0)
(1.097 -0.105 3.926e-20)
(-0.05902 0.02019 -7.768e-22)
(0.1181 -0.02882 1.277e-22)
(-0.007251 0.0001413 3.416e-21)
(0.6354 0.1428 0)
(0.005098 -0.005179 -3.492e-22)
(0.3006 0.06553 -8.433e-22)
(0.0004519 0.0001212 9.924e-22)
(-0.04612 0.01202 -5.523e-21)
(-0.04808 0.0168 1.8e-21)
(-0.1157 0.02863 5.649e-21)
(0.0528 -0.003917 8.11e-22)
(0.9984 0.0354 9.555e-22)
(0.6574 -0.09546 0)
(1.003 9.362e-06 0)
(1.001 -1.728e-05 0)
(-0.0728 0.01358 9.046e-21)
(1.035 0.04166 1.103e-21)
(-0.06451 0.0059 7.195e-21)
(-0.2144 -0.04204 -2.234e-20)
(0.2526 0.4489 0)
(1.104 -0.1021 -1.825e-20)
(1.047 -0.03425 -2.478e-20)
(0.95 0.4152 1.832e-21)
(0.7049 -0.1637 -2.516e-22)
(1.01 -0.005579 2.63e-20)
(0.02447 0.03443 1.847e-22)
(-0.1709 0.06021 -2.145e-21)
(1.045 -0.03244 3.382e-20)
(-0.01732 0.004036 -8.792e-21)
(-0.006851 0.00245 -7.171e-22)
(-0.05747 -0.01564 0)
(0.975 -0.2024 0)
(0.08054 -0.05565 -4.967e-21)
(-0.06948 0.02748 0)
(-0.09091 0.03182 0)
(0.9965 -0.00156 1.983e-20)
(-0.06408 0.005796 5.694e-21)
(0.4077 -0.09345 -1.212e-22)
(1.004 -0.004973 0)
(-0.02087 0.005224 4.113e-21)
(-0.09982 0.03086 0)
(-0.1568 0.06843 -2.809e-21)
(0.9997 -0.0001074 1.269e-21)
(0.8665 -0.002159 4.574e-21)
(0.1485 0.01873 0)
(0.02394 0.001013 1.211e-23)
(0.8402 -0.2824 -2.735e-21)
(-0.006784 0.002215 0)
(-0.1628 0.05513 6.161e-21)
(0.7035 -0.3089 0)
(0.7768 -0.1733 7.808e-23)
(-0.01113 0.003778 0)
(-0.05648 0.003989 1.61e-21)
(1.001 -1.013e-05 -8.254e-23)
(0.1665 -0.09764 0)
(1.112 0.3193 -8.212e-21)
(1.003 9.393e-06 0)
(0.7525 -0.2913 9.453e-23)
(0.00143 -0.000573 5.098e-23)
(0.1774 0.02089 -9.886e-21)
(0.04213 0.009738 -4.63e-21)
(1.144 -0.04833 7.687e-21)
(1.043 -0.1638 9.15e-22)
(-0.004976 0.001596 6.37e-26)
(0.01693 -0.001664 -1.539e-22)
(0.3468 -0.03792 0)
(1.005 0.02961 -2.561e-21)
(0.9976 0.002318 5.937e-21)
(0.9846 -0.1922 0)
(0.6767 -0.301 -1.011e-21)
(-0.1272 0.04313 -1.268e-20)
(-0.01953 0.00444 0)
(0.2784 0.6595 -5.297e-21)
(0.2058 -0.0866 -1.031e-21)
(0.3557 0.003813 -1.181e-22)
(1.116 0.1406 -1.649e-20)
(0.2014 -0.08414 -9.927e-22)
(1.112 0.008172 4.374e-20)
(-0.02102 0.001596 0)
(1.005 0.0003449 0)
(-0.2169 0.07865 6.515e-22)
(0.007155 -0.03387 -2.506e-23)
(-0.08531 0.01972 -2.459e-20)
(-0.05121 0.01566 0)
(-0.1602 0.05311 0)
(0.9967 0.0008447 -1.736e-20)
(0.9863 -0.003493 1.182e-20)
(-0.05235 0.01842 0)
(0.9509 -0.1939 4.031e-21)
(-0.123 0.04247 0)
(0.3786 -0.04795 0)
(-0.08176 0.02979 -2.98e-21)
(-0.211 0.06482 -2.354e-21)
(0.1824 0.02648 -2.239e-21)
(0.09361 0.02269 -1.568e-21)
(-0.06178 0.004407 -7.578e-21)
(0.0291 -0.004351 -1.005e-21)
(-0.06271 0.007015 -6.337e-21)
(0.2505 -0.01715 1.321e-21)
(-0.0336 0.01026 5.715e-21)
(1.046 -0.1288 -6.16e-21)
(-0.2137 0.076 6.299e-21)
(0.3777 0.849 5.433e-22)
(-0.1073 0.0376 -1.803e-22)
(0.005581 -0.03143 1.085e-22)
(0.0001005 -0.0001134 0)
(-0.1596 0.05276 0)
(1.005 -0.0003109 0)
(1.004 -0.001663 1.673e-20)
(-0.2031 0.07449 4.734e-21)
(-0.2036 0.06943 0)
(1.035 -0.1669 7.893e-21)
(1.003 1.628e-05 0)
(0.6727 -0.3121 -2.843e-21)
(-0.1235 0.03947 6.926e-21)
(1.129 -0.0713 -2.252e-20)
(-0.08907 0.03036 0)
(0.1353 0.02354 -2.64e-20)
(-0.05477 0.01779 -6.826e-21)
(1.056 0.5638 -8.275e-21)
(0.9999 0.0004503 -5.13e-20)
(1.016 -0.1726 0)
(1.148 -0.03155 -1.384e-20)
(0.1261 -0.0494 0)
(0.1569 -0.01145 0)
(-0.1195 0.03489 1.036e-21)
(0.7357 -0.2189 1.211e-20)
(0.3547 0.03637 5.383e-20)
(-0.01927 0.003408 0)
(0.363 -0.03038 -1.205e-21)
(1.007 -0.07413 0)
(-0.2022 0.05875 0)
(0.6623 -0.308 3.049e-21)
(0.554 -0.06346 3.659e-21)
(-0.1556 0.05487 0)
(0.1988 -0.08631 -1.174e-21)
(1.006 -0.00753 -8.39e-22)
(-0.009338 0.003373 0)
(-0.005595 0.001728 0)
(-0.19 0.07339 0)
(-0.05819 0.008675 1.459e-20)
(0.05692 -0.03387 -6.926e-21)
(0.9996 0.0125 1.605e-21)
(-0.002579 0.0006595 1.468e-21)
(0.03331 -0.00603 0)
(1.001 -0.0001454 0)
(0.9998 -5.248e-05 -9.316e-21)
(-0.06975 0.005435 6.689e-25)
(-0.08549 0.02337 3.289e-20)
(0.0005778 -0.0002532 -5.135e-23)
(0.002246 -0.03101 3.977e-22)
(0.6797 -0.09862 -7.161e-22)
(0.445 -0.1658 0)
(-0.0602 0.01987 -6.367e-21)
(1.024 -0.1686 0)
(1.064 -0.1357 0)
(1.004 -0.003973 4.481e-21)
(-0.05109 0.01727 -9.472e-21)
(-0.1276 -0.02516 0)
(-0.07752 0.02652 -7.28e-21)
(0.9953 -0.2065 0)
(-0.004946 0.0007759 2.241e-22)
(-0.1874 0.06674 -1.237e-20)
(1.002 -0.0006698 -4.911e-22)
(0.03173 -0.00428 0)
(-0.1262 0.04229 -5.371e-21)
(1 -0.0006381 -3.888e-20)
(-0.03729 0.005302 -2.91e-21)
(1.001 -0.0001516 -3.747e-21)
(0.9977 -0.002348 1.496e-20)
(0.9883 -0.1352 1.817e-21)
(1.006 -0.1493 0)
(-0.005878 0.000837 -4.939e-21)
(1 -0.001222 3.61e-21)
(0.2229 -0.02586 -2.856e-22)
(1.002 0.003924 0)
(1.152 0.5232 0)
(1.016 -0.1354 4.772e-21)
(0.01607 0.0205 7.392e-21)
(1.079 -0.1227 -4.542e-21)
(0.2962 -0.05886 -1.746e-22)
(0.3282 -0.04692 0)
(-0.03922 0.01142 1.284e-20)
(0.8941 -0.09959 6.548e-21)
(1.002 -0.001769 3.981e-21)
(1.019 0.0108 3.265e-20)
(-0.08339 0.01907 1.246e-20)
(0.5494 -0.1024 5.369e-22)
(-0.1038 0.03617 -7.421e-22)
(-0.06191 0.02057 0)
(0.07972 -0.005048 2.3e-25)
(-0.04973 0.0162 -3.393e-21)
(-0.004653 0.001519 -5.8e-21)
(-0.05342 0.008321 1.234e-20)
(0.4332 -0.1206 0)
(-0.01812 0.003239 -1.011e-20)
(0.2989 -0.03201 -5.986e-22)
(0.1017 -0.01458 0)
(0.8131 0.3576 3.819e-21)
(-0.08321 0.0356 0)
(1.003 -0.005144 2.787e-21)
(-0.02362 0.004643 1.379e-20)
(-0.03348 -0.003224 1.305e-21)
(0.1637 -0.02661 0)
(0.998 3.366e-06 3.602e-21)
(0.3299 -0.2211 3.419e-21)
(-0.1445 0.05047 0)
(0.692 -0.06484 5.911e-22)
(0.7279 -0.2024 1.586e-22)
(-0.06946 0.006568 -8.477e-22)
(1.074 -0.131 -5.744e-21)
(-0.01335 0.002888 0)
(-0.119 0.04997 5.366e-21)
(0.6997 -0.06579 1.771e-21)
(-0.08776 0.02842 -9.441e-23)
(0.2941 -0.08132 -6.538e-22)
(0.006073 -0.02341 8.336e-22)
(1.001 -0.0003058 0)
(1.055 -0.06777 -5.351e-21)
(-0.0247 0.004447 0)
(1.001 -0.00574 0)
(-0.03171 0.006841 0)
(-0.03589 0.003666 8.347e-22)
(0.9992 -1.01e-05 1.53e-21)
(0.9851 -0.2134 -5.94e-22)
(-0.03384 0.005723 0)
(1.036 -0.01461 0)
(0.8311 0.3601 -1.591e-20)
(-0.04536 0.02408 0)
(0.04297 -0.01206 0)
(1.037 -0.145 -8.43e-21)
(1.003 1.765e-05 -9.755e-23)
(-0.0334 0.008215 -1.883e-22)
(-0.05732 0.01738 -3.913e-22)
(1.01 -0.001503 2.197e-20)
(0.8865 0.3243 7.65e-21)
(1.034 0.08272 5.158e-21)
(-0.128 0.04126 1.013e-20)
(-0.03353 0.009277 -6.264e-21)
(1.016 -0.179 -1.686e-21)
(1.047 -0.02831 0)
(-0.008982 0.0008927 -1.974e-22)
(-0.001384 0.000454 1.866e-22)
(0.3181 -0.06783 2.421e-23)
(0.4175 -0.06684 -1.943e-21)
(-0.1835 0.06629 -3.253e-21)
(0.05289 -0.00442 0)
(0.9934 -3.199e-05 -3.685e-21)
(0.5026 -0.05379 3.618e-21)
(1.003 0.005165 1.354e-22)
(-0.1429 0.04606 0)
(0.6207 -0.3019 -3.089e-21)
(-0.03965 0.006812 0)
(0.7203 -0.2003 1.345e-21)
(0.009693 -0.01446 -2.139e-22)
(-0.00737 0.001109 0)
(0.9993 0.001839 -1.232e-20)
(-0.001895 0.0006971 0)
(-0.02755 0.008925 0)
(-0.02388 0.006936 3.291e-21)
(0.8356 -0.069 5.468e-21)
(0.4626 0.1489 0)
(-0.1357 0.05436 -4.339e-21)
(-0.09835 -0.005626 9.582e-21)
(0.1397 -0.01005 0)
(0.7671 -0.1076 0)
(0.8864 -0.006304 -7.778e-20)
(0.008044 -0.0004033 1.911e-22)
(-0.1926 0.06637 3.122e-21)