/*--------------------------------*- C++ -*----------------------------------*\
  =========                 |
  \\      /  F ield         | OpenFOAM: The Open Source CFD Toolbox
   \\    /   O peration     | Website:  https://openfoam.org
    \\  /    A nd           | Version:  8
     \\/     M anipulation  |
\*---------------------------------------------------------------------------*/
FoamFile
{
    version     2.0;
    format      ascii;
    class       volScalarField;
    location    "60";
    object      nut;
}
// * * * * * * * * * * * * * * * * * * * * * * * * * * * * * * * * * * * * * //

dimensions      [0 2 -1 0 0 0 0];

internalField   nonuniform List<scalar> 
63579
(
1.599e-06
6.878e-06
3.425e-06
1.463e-06
4.838e-06
2.485e-06
0.0009
0.06141
0.0008999
8.926e-05
8.51e-05
0.05424
8.656e-05
4.525e-05
0.1565
4.737e-05
0.001312
0.0148
0.01747
8.842e-05
0.0011
0.406
0.5091
0.000541
0.5054
0.02793
0.4797
0.01801
0.6153
0.018
0.4001
0.4856
0.5791
0.539
0.0005613
0.6344
9.668e-05
0.001796
0.01908
0.001271
0.4404
0.001843
0.03947
0.01557
0.6353
0.001213
0.0005173
0.01225
0.003061
0.401
0.009057
0.5105
0.0009954
0.005234
0.5746
0.01366
0.534
0.5792
0.5418
0.5133
0.003281
0.04091
0.0001026
5.092e-05
0.4941
0.0005182
0.00538
0.0001904
0.04282
0.5562
0.004003
0.0001848
0.6205
0.000374
0.009817
0.001318
0.07162
0.002197
0.02797
0.0004927
8.248e-06
0.4296
0.0001752
0.01457
0.0005147
0.4221
0.01168
0.004939
0.3656
0.004294
0.001154
0.2939
0.004959
0.2026
0.0005559
0.05713
0.005459
0.001046
0.3203
0.002521
0.5573
0.5572
0.5712
0.5687
0.4088
0.1104
0.1226
0.006585
0.05944
0.5748
0.5631
0.0005315
0.006212
0.1237
0.004757
0.5835
0.001242
0.0002779
0.211
0.06783
0.5686
0.0005169
0.001969
0.4154
9.868e-05
0.005152
0.0009036
0.008775
0.496
0.0007067
0.007599
0.1044
0.3131
0.557
0.001632
0.01281
0.0002222
0.3663
0.001526
0.3149
0.007586
0.4266
0.03539
0.01277
0.5761
0.5743
0.5742
0.001413
0.2821
0.02891
0.06891
0.01013
0.5329
0.006812
0.000294
0.0201
0.02114
0.01436
0.002998
0.006793
0.5627
0.006917
0.002716
0.0004329
0.4317
0.5729
0.001856
0.0002777
0.1604
0.06456
0.3771
0.005102
0.001793
0.2742
0.004646
0.5743
0.1604
0.5386
0.5385
0.0753
0.009069
0.01194
0.006182
0.00544
0.001351
0.000336
0.0003881
0.3635
0.004588
0.4027
0.5907
0.5715
0.2087
0.3126
0.009999
0.3739
0.0001702
0.3347
0.0006231
0.3108
5.785e-05
0.0004722
0.01936
0.5378
0.2156
0.518
0.02732
0.0009163
0.001015
0.02711
0.3641
0.3241
0.5842
0.2131
0.007792
0.005215
0.6365
0.001318
0.004245
0.0003592
0.04391
0.003575
0.0001842
0.001389
0.4156
0.08553
0.01899
0.0606
0.09948
0.499
0.5906
0.006568
0.4138
0.5376
0.5732
0.008194
0.5001
0.5712
0.001469
0.2064
0.000616
0.00856
0.2057
0.0002453
0.005795
0.007153
0.3783
0.5644
0.4411
0.04155
0.1495
0.3829
0.002404
0.0001245
0.00159
0.0004449
0.005196
0.5661
0.5497
0.002389
0.002014
0.004004
0.007674
0.06155
0.006483
0.5683
0.0001191
0.564
0.5882
0.5732
0.002789
0.01091
0.0005926
0.3857
0.001151
0.0003161
0.4947
0.01029
0.1182
0.3732
0.0002798
0.4457
0.06125
0.004504
0.000335
0.5408
0.005366
0.4487
0.01943
0.001672
0.5375
0.0003131
0.004663
0.6171
0.6087
0.1123
0.005854
0.5724
0.3413
0.006858
0.0007346
0.005089
0.01092
0.5511
0.4921
0.00367
0.4338
0.005725
0.3149
0.0001646
0.5723
0.3017
1.965e-05
0.3825
0.003278
0.5728
0.007964
0.5732
0.5761
0.0007489
0.0004219
0.0005028
0.003456
0.001479
0.002019
0.0002045
0.4445
0.0004937
0.5743
0.005955
0.4979
0.4887
0.5742
0.0257
0.001439
0.4645
0.5348
0.0003287
0.008346
0.004079
0.4634
0.02046
0.4091
0.3395
0.0002447
0.5018
0.3015
0.4199
0.04706
0.1014
0.007849
0.05265
0.0002075
0.4431
0.5248
0.001686
0.02186
0.02704
0.4513
0.5247
0.06079
0.0007185
0.002018
0.05721
0.0009453
0.5662
0.4791
0.08618
0.02766
0.0003168
0.001015
0.3033
0.1473
0.00081
0.005232
0.3044
0.003904
0.001177
0.0004442
0.001254
0.001113
0.003276
0.007248
0.02668
0.02143
0.4282
0.00259
0.002532
0.00207
0.5626
0.3116
0.000159
0.3581
0.3485
0.5703
0.002086
0.5535
0.006291
0.01511
0.02109
0.005039
9.066e-05
0.3798
0.0004084
0.4006
0.009945
0.5903
0.4972
0.01178
0.3125
0.002433
0.002946
0.003351
0.4263
0.5664
0.4102
0.009806
0.02994
0.5279
0.01541
0.4247
0.5023
0.07881
0.5269
0.0003559
0.003871
9.164e-05
0.4518
0.003786
0.581
0.0003502
0.5156
0.002105
0.0003017
0.4629
0.04557
0.0001901
0.0003871
0.01832
0.01076
1.276e-05
0.5785
0.0007024
0.0009858
2.258e-05
0.4277
0.0001084
2.699e-05
0.5408
0.002503
0.2916
0.2936
0.4549
0.005405
0.01963
0.2704
0.001472
0.002332
0.5193
0.2816
0.006252
0.0009708
0.571
0.0008423
0.4131
0.4259
0.1491
0.007368
0.003555
0.002929
0.2928
0.0001915
0.2918
0.007602
0.01242
0.0008876
0.5526
0.5823
0.006571
0.005667
0.003821
0.0002045
0.0002025
0.5659
0.5776
0.5635
0.03568
0.001001
1.525e-05
0.00831
0.002663
0.5625
0.5522
0.01835
0.6139
0.003831
0.02404
0.008017
0.6368
0.02667
7.216e-05
0.02177
0.0009516
0.003
0.001935
0.0001798
0.4184
0.0008921
0.5726
1.533e-05
0.4233
0.6045
0.002663
0.000943
0.02515
0.02395
0.4056
0.01048
0.4508
1.703e-05
0.5685
0.4302
0.5679
0.006322
0.05668
0.5623
0.0003559
0.5805
0.002173
0.06799
0.01079
0.0005486
0.0007597
0.004846
0.384
0.1849
0.001617
0.0008871
0.0006956
9.095e-05
0.03644
0.3407
0.0002217
0.3795
0.001013
0.002885
0.002442
0.01837
0.002935
0.00047
0.4577
0.4948
0.6385
0.01116
0.2152
0.0364
0.03883
0.5476
0.5565
0.04763
0.34
0.007995
0.2975
0.000532
0.001105
0.3977
0.001681
0.577
0.004621
0.002395
0.5959
0.003996
0.0008059
0.003401
0.2668
0.0003273
0.00153
0.001875
0.002777
0.0005994
0.0008001
0.06028
0.002209
0.06341
0.0004589
0.5488
0.567
0.173
0.5796
0.002591
0.00961
0.003131
0.0009441
0.00509
0.08275
0.006871
0.02969
0.01476
0.007555
0.2165
0.5802
0.0003506
0.5165
0.0007309
1.854e-05
0.5553
0.1099
0.4821
1.869e-05
0.01896
0.007136
0.4247
0.4563
0.3335
0.3317
0.006695
0.001106
1.524e-05
0.01397
0.0001881
0.4785
0.003195
1.437e-05
1.24e-05
0.01301
0.001278
1.198e-05
0.5366
0.0008568
0.0009849
0.4915
0.0007431
0.004866
0.0006272
0.5532
0.01372
0.5725
0.00287
0.0002265
0.01727
0.01283
0.0001595
0.1138
0.002592
0.0002928
0.5714
0.002282
0.4751
0.01307
0.3566
0.4338
0.0004101
0.0008672
0.6148
0.5614
0.5992
0.5558
0.6118
0.5643
0.05955
0.6317
0.005316
0.2881
0.001697
0.005018
0.0008933
0.001741
0.56
0.0001673
0.5793
1.503e-05
0.001556
0.0008378
0.3841
0.3787
0.06359
0.003604
0.01537
0.01164
0.1442
0.0125
0.0002262
0.03475
0.01286
0.002971
0.0008122
0.5552
2.75e-05
0.2081
0.003144
0.1969
0.001959
0.5658
0.0036
1.208e-05
0.0001866
0.01794
0.3426
0.001035
0.5616
0.04808
0.003835
0.0004671
0.1651
0.001266
0.0003401
0.3986
0.3984
0.0006413
3.258e-05
0.003282
0.0002591
0.2105
0.4776
0.569
0.5596
0.4636
1.585e-05
0.5742
0.0002082
0.02491
0.003333
0.4121
0.0001917
0.001791
0.4244
0.001062
0.0007827
0.142
0.4126
0.3809
0.6319
0.02489
0.4341
0.5838
0.002404
0.4954
0.008511
0.03436
0.5745
0.542
2.216e-05
0.004735
0.002935
0.4833
0.02464
0.07196
0.3732
0.01032
0.463
0.001519
0.5518
0.626
0.02082
0.001988
0.005956
0.0003626
0.5366
0.0001277
1.592e-05
0.000192
0.226
0.00723
0.0001686
0.001355
0.4074
0.5648
0.001572
0.5806
0.5731
0.03712
0.5112
0.003455
0.2135
0.0007964
0.5892
0.0009564
0.0002124
0.01074
0.001707
0.2513
0.000419
0.002589
0.0003418
0.0002713
0.00243
0.2235
0.001182
0.05763
0.003091
0.4948
0.3171
1.63e-05
1.783e-05
0.01796
0.4172
1.84e-05
0.00205
0.06218
0.0007379
0.3257
0.6394
4.977e-05
0.004633
0.00344
0.002018
0.5855
0.003552
0.02176
0.005487
0.425
0.002679
0.0001217
0.5656
0.458
0.3947
0.009613
0.01125
0.003664
0.01902
0.4172
0.4605
0.03356
0.6051
0.001757
0.3661
0.4137
0.4352
0.004341
0.4431
1.475e-05
0.0209
0.009143
0.00158
0.01575
0.571
0.001168
0.01679
0.00214
0.6088
0.0007538
0.0001918
1.561e-05
0.001106
0.4207
0.002533
1.02e-05
0.3694
0.0008706
0.001741
0.3
0.0002929
0.0001746
0.4439
0.007332
0.001562
0.1196
0.555
0.0005567
0.0003497
0.001827
0.0001997
1.666e-05
0.4161
0.001148
0.005929
0.006008
0.002317
0.4168
0.002712
8.742e-05
0.01642
0.01341
0.5685
0.4455
0.02478
0.4922
0.003281
0.002093
0.001007
0.006855
0.001579
0.0007993
0.06735
0.002776
0.008048
0.008329
0.3333
0.5736
0.5933
0.0002175
0.002528
0.004587
0.3749
0.0002301
7.767e-05
0.07778
0.01829
0.5882
0.0002474
0.001292
0.01062
0.0002114
0.001902
0.06074
0.0004454
0.5621
0.0003738
0.00348
0.3685
0.3665
0.03419
0.4824
0.4629
0.2932
0.01743
0.5434
0.02858
0.577
0.5124
0.007161
0.1202
0.0003697
0.07142
0.00254
0.0004691
1.668e-05
0.5732
0.4255
0.01093
0.5797
2.557e-05
0.0004978
0.3058
0.3058
0.0006915
0.002427
0.2714
0.01571
0.6351
0.0002262
0.001795
0.003136
7.297e-05
0.00879
0.561
0.008783
0.001705
0.0003588
0.0008467
0.0001446
0.08431
0.2921
0.2932
0.009759
0.0007714
0.3822
0.5742
0.005492
0.6143
1.822e-05
0.004698
0.04785
0.0032
0.1412
0.0001452
0.00173
0.4015
0.00797
0.008289
0.002859
0.002704
0.007575
0.0003809
0.0023
0.0002895
0.006895
0.009173
0.006033
2.047e-05
0.0239
0.5421
0.6194
0.001993
1.742e-05
0.06243
1.077e-05
0.003594
0.3695
0.02654
0.5751
0.0003789
0.01057
0.5626
0.02221
0.0004798
0.03842
0.01008
0.2111
0.001556
0.00629
0.5266
0.0009024
0.00541
0.5712
0.001109
0.0007621
0.006279
0.003696
0.000322
0.001063
0.003926
0.00905
0.3758
0.5728
0.5991
0.004067
0.5561
0.003234
0.0003272
0.0008427
0.1662
0.3301
0.0003504
0.0114
0.001785
0.4276
0.6067
0.01609
0.527
0.004371
0.002388
0.0004685
0.000369
2.123e-05
0.0012
0.07728
0.003189
0.009756
0.4144
0.01148
1.866e-05
0.002801
0.0004894
0.4354
0.004148
0.0007889
0.5626
0.005616
0.0001475
0.005676
0.001392
0.6276
0.6276
0.001394
0.008047
0.549
0.0003584
0.5133
0.5232
7.3e-06
0.0006171
0.4227
0.0004349
0.06514
0.0005728
0.4164
0.01692
0.3893
0.3364
0.3552
0.2942
0.08531
0.005905
0.0008374
0.01012
0.2937
0.003973
0.0009998
0.1376
0.002924
8.812e-06
0.001628
5.951e-05
0.01973
0.001922
0.5742
0.001045
0.01122
0.2801
1.668e-05
0.579
0.4217
0.4579
0.007428
0.002696
0.5448
0.5651
0.04549
0.01167
0.0004064
0.0009039
0.04261
0.02113
0.5742
8.631e-05
0.572
0.4222
0.4157
0.0002495
0.001074
0.586
0.0735
0.001734
0.4286
0.03021
8.838e-05
0.6183
0.4023
0.07278
0.5156
0.003113
0.0001079
0.07034
0.0003952
0.5752
0.0009106
0.5788
0.0003135
5.648e-05
1.534e-05
0.02513
0.2102
0.5611
1.533e-05
0.002618
0.6424
0.2416
0.01699
0.5756
0.001755
0.001865
0.001683
0.0005239
0.1416
0.0006326
0.4608
0.0002589
0.0004287
0.5759
2.474e-05
0.6349
0.002798
0.001339
0.3711
8.207e-06
0.355
1.574e-05
1.657e-05
0.0008167
0.000659
0.07636
0.003277
0.4716
0.004015
6.366e-05
0.002548
0.002216
2.219e-05
0.2771
7.954e-05
0.06446
0.004292
0.3439
0.004844
0.3454
0.555
0.01199
0.001508
0.3049
0.3691
0.0002833
0.3043
0.001043
0.08745
1.438e-05
0.2516
0.0004634
0.0004164
0.001391
0.01122
1.568e-05
0.3525
0.004292
0.5696
0.006031
0.001953
0.004995
9.134e-06
0.3653
0.286
0.003996
0.6338
0.001283
0.001838
0.3267
0.6046
0.282
0.0001455
0.5848
0.001431
0.008395
8.832e-05
0.4125
0.218
0.0005116
0.000784
0.004007
0.5511
0.001088
0.556
1.55e-05
0.0004308
0.0003697
0.01664
0.3754
0.4735
0.01014
0.5845
0.002873
0.4551
0.0008147
0.5369
0.01146
0.01046
0.07914
0.05043
0.003177
0.46
0.6026
0.5486
0.2879
0.03575
0.5707
0.001476
0.004117
0.00211
0.5928
0.0001369
0.4185
1e-05
0.0001287
0.3388
0.07273
0.3512
0.002209
0.001958
0.001477
0.5813
0.01041
0.003415
0.0009794
0.5592
0.004727
0.04721
0.614
0.008093
0.2232
0.3262
0.005459
1.589e-05
0.009703
0.007406
0.5701
0.3685
0.05542
0.3659
8.669e-05
0.5933
0.5439
0.00311
0.5936
0.002289
0.008085
0.0008038
0.004951
0.0003931
0.5691
0.5095
0.0001664
0.0009175
0.01211
0.01675
0.0002425
0.5612
0.5923
0.008756
0.09204
0.0005031
0.003408
0.5565
0.5717
0.608
0.4602
0.0004146
0.0001674
0.5202
0.0006184
0.000619
1.738e-05
0.5469
0.5513
0.5292
1.33e-05
0.00159
0.00134
0.3159
1.303e-05
0.1718
0.003165
0.6043
0.4031
0.0004854
0.05372
0.007628
0.6201
0.2284
0.304
0.5474
0.00716
0.0006115
0.619
0.6107
0.08506
0.0002924
0.00171
0.00338
0.5403
0.0007908
0.3378
1.436e-05
0.1269
0.1108
0.3973
0.03963
0.5678
0.5976
0.08783
0.4172
0.001224
0.574
0.001596
0.003124
0.3747
0.589
0.5664
0.13
0.00048
1.59e-05
0.003301
0.000121
0.4044
1.838e-05
0.04665
0.000231
0.1988
0.001332
0.03743
0.001353
0.3537
0.006123
0.4129
0.000194
0.6082
0.003
0.5803
0.3485
0.001485
0.6543
0.0119
0.5444
0.03768
2.135e-05
0.01261
0.5639
0.2541
0.04028
0.001824
0.0005512
0.01382
0.5714
0.2367
0.001233
0.003187
0.6098
0.00149
0.4374
0.1087
0.1921
0.002599
0.0005432
0.009024
0.006708
0.2002
0.005878
0.006674
0.6069
0.3905
0.008808
0.2792
0.5307
0.01074
0.006613
0.0008883
0.0003708
0.01888
5.677e-05
0.0002251
0.01555
0.0002102
0.008418
0.001405
0.5728
0.03904
0.567
0.0002227
0.1953
0.0006259
0.5688
0.3695
0.5879
0.5652
0.001487
0.008812
0.4473
0.5749
0.004272
0.002625
0.0002948
0.01739
0.0004391
0.5686
0.002292
0.561
0.002755
0.1198
0.0008436
0.2421
0.0006989
0.453
0.5505
0.4244
0.0009006
0.0007136
0.006524
0.03524
0.001877
0.006179
0.3516
0.03037
9.831e-06
0.5412
0.0005204
1.602e-05
0.008407
0.002909
0.003805
0.0004135
0.4067
0.2958
0.5531
0.0005914
0.005564
0.001812
0.0002067
0.001561
0.01314
9.924e-06
2.278e-05
0.5754
0.002867
0.0002927
0.003544
0.007051
0.2198
0.0173
0.01732
0.0004675
0.003052
0.0004999
0.3873
1.499e-05
0.07402
0.0837
0.09697
0.02023
0.00618
0.001903
1.535e-05
0.006546
0.2152
0.001802
0.5734
0.5371
0.5749
0.00221
0.06085
0.1817
0.0001616
0.000366
0.0005773
0.08787
0.5864
0.541
0.4526
0.193
1.484e-05
0.002086
0.4889
0.58
0.004217
0.2701
0.0007945
0.4371
0.008042
1.503e-05
0.004922
0.04706
0.001115
0.004409
0.01104
0.0005157
0.2603
0.00322
0.0006554
0.5784
0.5766
0.00381
0.002821
0.03964
0.0006601
0.0005393
0.0003501
0.003644
0.001126
0.4562
1.729e-05
0.0001673
0.00773
0.0002692
0.02572
0.1222
0.0001634
0.3588
0.2855
0.4261
0.0008255
0.001689
0.0007305
0.3125
0.00261
0.004018
0.000743
0.001903
0.0004253
0.000159
0.02723
0.0004384
0.01835
0.6032
1.758e-05
0.5022
0.05905
0.0004177
0.3618
0.0004195
0.3917
0.03698
0.08917
0.0008741
0.4388
0.0005234
0.001026
0.02932
0.5816
1.298e-05
0.2358
0.2864
0.5704
0.005294
0.5956
0.0009531
0.04069
0.001164
0.5584
0.02728
0.01111
0.5337
0.001744
0.004337
0.01256
0.001534
0.5446
0.0005576
0.5974
0.03471
0.539
0.003403
0.0001746
0.5939
0.6003
0.426
0.3757
0.5736
0.001357
0.0001757
0.002131
0.6432
0.003637
0.1593
0.1093
0.4367
0.4522
0.6258
0.009828
0.001495
0.02512
0.0001072
0.001907
0.0087
1.932e-05
0.378
0.3373
0.3306
0.336
0.002409
0.06791
0.5681
0.0003082
0.0006887
0.001784
0.003115
0.005237
0.5413
0.008137
0.5585
0.001081
0.005238
0.2492
0.093
0.5691
0.0004392
0.01602
0.003377
0.02433
0.04477
0.5907
0.01805
0.0001639
0.3193
0.5704
0.2533
0.6039
0.004708
0.4881
0.4878
0.008668
0.3754
0.0432
0.4743
0.5948
0.001561
0.004032
1.308e-05
0.4293
0.5969
0.07606
0.00426
0.6069
0.5294
0.00164
0.1171
0.3605
0.5371
0.1797
0.5026
0.3648
0.0005005
0.003631
0.6238
1.819e-05
0.5902
0.02973
0.008926
0.04264
0.6064
1.829e-05
0.006423
1.969e-05
0.6022
0.5734
0.01107
0.4153
0.0007247
0.4134
0.0007008
0.05061
0.4303
0.001867
0.5664
0.01479
0.006392
0.5619
0.0002092
0.2121
0.0001341
0.001379
0.002958
0.196
0.01391
0.5736
0.5716
0.0001477
0.002695
0.5793
0.5795
0.5627
0.2113
0.05212
0.3184
0.03171
0.0004844
0.4382
0.001913
0.00323
0.03967
0.586
0.3277
0.006894
0.2927
0.001321
0.0001153
1.22e-05
0.0002327
0.003598
0.4188
0.4208
0.001026
1.824e-05
0.003506
0.001599
0.3089
0.001366
0.4383
0.002241
0.3963
0.002154
0.003664
0.0001834
0.4353
0.005981
0.5138
0.6019
0.0009408
0.004853
0.008863
0.001219
0.4998
0.3533
0.004256
0.5504
0.00671
0.0008703
2.195e-05
0.5119
0.001273
0.5163
0.0003427
0.001046
0.01715
0.4825
0.4234
0.5553
0.001134
0.000215
0.3693
0.04369
0.4325
0.003196
0.0002054
0.58
0.105
0.01952
0.0007184
0.238
0.002159
9.257e-05
0.5699
0.002302
0.003216
0.5888
0.5622
0.423
0.552
0.0441
0.1833
0.003674
0.3666
2.327e-05
0.5667
0.5725
0.003058
0.005687
0.001812
0.001684
0.5926
0.5673
0.1094
0.0001738
0.004417
0.005348
0.01372
0.5726
0.4831
0.003366
0.1784
0.004905
0.5482
0.0003646
0.002693
0.0111
0.3882
1.504e-05
0.0005589
0.5326
9.151e-06
0.5652
1.05e-05
0.004097
0.0003689
0.0002612
0.008404
9.09e-05
0.007792
0.5691
0.007829
0.3915
0.001397
0.0001395
0.0002885
0.5732
0.4645
0.004892
0.006004
0.5489
0.01183
0.0005679
0.0008372
0.3432
0.002454
0.0004007
0.001465
0.005498
0.002269
0.0003511
0.001998
0.0001015
0.06936
0.0008717
0.3062
6.956e-05
0.001203
0.005708
0.4556
0.009291
0.5794
0.002839
0.009749
0.01198
0.0002505
0.0009701
0.0003914
0.001371
0.05512
0.001752
0.02067
0.1256
0.0003534
0.01965
0.5996
0.5717
0.004127
0.2459
0.3681
0.5687
8.02e-05
0.5454
0.4232
0.003956
0.3235
0.3216
0.3591
0.0015
0.1211
0.007492
0.4216
0.000298
0.5723
0.000321
1.703e-05
0.0002049
0.3985
0.00113
0.003193
0.3807
0.005551
0.002149
0.00159
0.4145
0.000169
0.3415
0.3678
0.4162
0.0002622
1.606e-05
0.3744
0.002288
0.04509
0.5306
0.001471
0.2425
0.01496
0.008059
0.001721
0.395
0.01412
0.01071
0.0005405
0.01212
0.00757
0.5791
0.05313
0.0006262
0.4429
0.01404
0.005219
0.006189
0.003404
0.003655
0.04983
0.3939
0.06282
0.00024
0.02882
0.08686
0.0004586
0.6463
0.001303
0.3145
0.5389
0.001049
1.535e-05
0.6043
2.178e-05
0.5447
0.002595
0.005867
5.229e-05
0.0003646
1.668e-05
1.691e-05
0.0003865
0.002346
0.3861
0.02264
0.002887
0.5829
0.0007829
1.575e-05
0.1407
0.003402
0.01073
0.001191
0.0001698
0.3121
0.3118
0.578
0.5651
0.04868
8.999e-05
0.007258
0.5331
9.445e-05
0.4654
0.01659
0.02529
0.01666
0.003997
0.002419
8.086e-05
0.001413
0.6191
0.0001972
0.0005164
0.001441
0.0009622
0.0008139
0.4245
0.0009768
0.1489
0.5552
0.001165
0.04061
0.09788
0.009124
0.0492
0.003881
0.006174
0.001942
0.007931
0.0009095
0.02528
5.99e-05
0.01412
0.06289
0.001254
0.001555
0.6053
0.0003267
0.003539
0.003214
0.00162
0.0003207
0.4237
0.5864
0.5247
0.002493
0.01108
0.002843
0.009384
0.0004056
0.0001805
1.24e-05
0.5686
0.002604
0.0005212
0.000576
0.5496
0.0005574
0.001322
0.001101
0.5574
0.001099
0.5003
7.239e-06
0.3064
0.001053
0.0006862
0.02592
0.007093
0.0003419
0.4433
0.4434
0.5437
0.0002724
0.09969
0.00373
0.00296
0.001648
0.4345
0.3653
0.4933
2.235e-05
0.008159
0.4428
0.3471
0.6258
0.02294
0.0004316
0.1614
0.006323
0.0004815
0.0003184
2.203e-05
0.003963
0.002509
0.001635
0.02362
0.6062
0.536
0.0004501
0.5646
0.02505
0.3891
1.605e-05
0.0001758
0.6074
0.0003819
0.5757
0.0007331
0.09182
0.4833
0.0004526
0.002268
0.001187
0.5696
0.6055
0.0004285
0.3201
0.3198
0.03998
0.2666
0.01511
0.005259
0.001247
0.1297
0.3826
1.391e-05
0.002681
0.0002584
0.1406
0.3043
0.002011
0.0004011
0.0006242
0.01727
0.4411
0.5665
0.5739
0.001526
0.0007725
0.4783
0.0007929
0.002143
0.1049
0.0116
0.01
0.07419
0.0001649
0.00499
0.0004593
0.3465
0.3665
0.4994
0.001525
0.008357
0.007967
0.002879
0.3636
0.1437
0.06849
0.0009609
0.00458
0.3601
0.0009289
0.02367
3.273e-05
0.3009
0.4768
0.001729
0.1038
0.583
0.005235
0.4749
0.01289
0.003783
0.5569
0.003108
0.002782
0.02001
0.001482
0.1198
0.5497
0.4865
0.3712
0.5736
0.001476
0.3468
0.0003915
0.004179
0.0003735
0.2888
0.5678
0.0005617
0.3124
0.002391
0.009836
0.4221
0.0002346
0.03802
0.01479
0.565
1.207e-05
0.5593
0.5455
0.4069
0.000137
0.5696
0.0007592
0.001904
0.4816
0.4121
9.676e-05
0.006372
0.0007565
0.004199
0.5331
0.5916
0.01218
6.52e-05
0.0003127
0.0009307
0.01765
0.0006755
0.001922
0.5888
0.0003424
0.5658
0.0001903
0.008057
0.01816
0.4537
0.001379
0.04458
0.0002321
0.0006694
0.3967
0.5734
0.0006629
0.0004352
0.001728
0.004804
0.3243
0.6146
0.002462
0.0469
0.04031
0.004294
0.002746
0.4747
0.003629
0.006698
0.001843
0.4217
0.1756
0.555
2.606e-05
0.004982
0.6123
0.3809
0.003797
0.008941
0.5683
0.562
0.0005602
0.3043
0.01678
0.02761
0.4706
0.3487
0.00835
0.01166
0.5983
0.5222
0.00419
0.01377
0.03006
0.5696
0.0001947
0.5586
0.0002417
0.007884
0.000943
0.001855
0.0487
0.5736
4.099e-05
0.003119
0.00225
0.6413
0.001492
0.01689
1.642e-05
0.5757
0.5718
0.5557
0.0001893
0.3766
0.00596
0.000997
0.01255
0.008726
0.5247
0.1101
0.0004748
0.02877
0.003526
0.007444
0.02641
0.0002966
0.001447
0.02213
0.009398
0.005811
0.002026
0.05034
0.3027
0.0001334
0.004057
0.567
0.0003596
0.02627
0.347
0.0004301
0.0003891
0.2748
0.001702
0.002365
0.569
0.3852
0.6406
0.0355
0.5959
0.592
0.01658
0.0006712
0.001632
0.001668
0.5712
0.0005208
0.01159
0.008501
0.01316
0.2689
0.279
0.1385
0.0001364
0.1994
0.5636
0.5674
0.06301
0.001961
0.0006509
0.01241
0.4681
0.01658
0.02142
0.01168
0.001003
0.552
0.2304
0.5213
0.3538
0.5794
0.03865
0.2696
0.002764
0.3568
0.00219
0.298
0.4836
0.0008812
0.0002388
0.4529
0.06161
0.4926
0.001033
9.545e-06
1.184e-05
0.5971
0.003681
1.191e-05
0.001497
0.02183
0.0004729
0.00191
0.003184
0.0004859
0.006568
0.006598
0.003728
0.2612
0.03891
1.5e-05
0.1395
0.002599
0.3973
0.4009
0.008699
0.001661
0.2842
0.001982
0.0003406
0.5494
0.00889
0.5
0.03282
0.2646
0.6532
0.001026
0.2193
0.02687
0.5671
0.004736
0.1054
0.3138
0.02242
0.008118
0.0001159
0.001091
0.0366
0.002022
0.0003268
0.4162
0.003534
0.001982
0.559
0.001632
0.5715
0.01816
0.4592
0.5154
0.5823
0.2448
0.0159
0.0009188
0.5701
0.4963
0.001128
0.006986
0.004179
0.579
8.076e-05
0.0002553
6.021e-05
0.001511
0.3598
0.3851
0.00209
0.5349
0.01017
0.0009636
0.02505
0.1173
0.000645
0.2756
0.00534
0.5768
0.009647
0.0008518
0.002767
0.003087
1.519e-05
1.445e-05
0.001032
0.0006164
0.1854
0.5603
0.000259
0.03783
0.06856
0.002422
0.00157
0.5735
0.1349
0.006385
0.08528
0.0001188
0.0001059
0.01041
0.0001184
0.0002448
0.0001469
0.4809
0.0002308
0.0009305
0.01009
0.1691
1.312e-05
0.003661
1.489e-05
0.0001451
0.003249
0.5522
0.3163
0.02152
0.01102
0.01826
0.00725
0.0132
0.002082
0.3217
0.2606
0.434
0.005719
0.002631
0.003924
0.007215
0.551
0.007518
8.396e-05
0.2936
0.3592
0.3458
1.016e-05
0.3043
0.2354
0.2251
0.594
0.2701
0.002672
0.004089
0.04761
0.009907
0.5754
0.6002
0.000462
0.001469
0.01094
0.002741
0.5183
0.002306
0.001763
0.5668
0.1469
0.001883
0.0001072
0.0008626
0.1365
0.026
0.07814
0.005912
0.007103
0.001597
0.0001506
0.004383
1.88e-05
0.292
0.0188
0.0003773
0.0005076
0.004427
0.5461
0.341
0.3394
0.3608
1.315e-05
0.3728
0.373
0.2906
0.5546
0.005203
0.3952
0.0002737
0.0009329
0.004462
0.0007968
0.003675
0.06802
0.5376
0.003905
0.00239
0.005968
6.877e-06
8.909e-05
0.0004961
0.02987
0.6476
0.5899
0.3881
0.006102
0.3674
0.0001076
0.491
0.0002719
0.001275
0.2727
0.008246
0.0009096
0.0008278
0.2041
0.000108
6.446e-05
1.397e-05
0.557
9.892e-06
0.6216
0.0005192
0.00708
0.0189
0.1662
0.5577
0.002212
0.0001917
5.349e-05
0.0001323
0.02432
0.1651
0.5828
0.5526
0.387
0.5938
0.01042
0.03533
0.00217
0.0063
0.1306
0.0001759
0.001524
0.02758
0.0009005
0.001686
0.01728
0.01526
0.5201
0.0009274
0.5793
0.2668
0.01271
0.5814
0.006845
0.0002086
0.004377
0.1786
0.0009659
0.0003759
0.0004417
0.5289
0.03144
0.008307
0.316
0.5707
0.5695
1.513e-05
0.0004346
0.5407
0.005936
0.3159
0.4068
0.0009469
0.5512
0.005285
0.5709
0.005848
0.5753
0.00524
0.5753
0.0007856
0.5467
0.3527
2.127e-05
0.0001565
0.004037
0.005396
0.02219
0.0004339
0.006337
0.001394
0.003078
0.001506
0.005692
0.4737
0.007389
9.891e-05
0.4031
0.0008151
0.04346
0.001368
0.000896
0.5665
0.03842
4.655e-05
6.588e-05
0.5563
0.5403
0.009978
0.5758
0.009561
0.1103
0.00238
0.01357
0.02688
0.3776
0.2616
0.5826
0.01628
0.565
0.5959
0.2456
0.0004547
0.5048
0.003812
0.5944
0.003879
0.001799
0.3892
0.5449
0.3476
0.6644
0.001304
0.002192
0.5751
0.567
0.01038
0.002348
0.01658
0.0007034
0.02607
0.007016
0.0004521
0.6331
0.0004822
0.4241
0.02995
0.001066
0.3018
0.003689
0.002036
0.0001172
0.0005185
0.004257
0.004037
0.0127
1.856e-05
0.000185
0.1929
0.5728
0.3242
0.0005811
0.0003108
0.5058
0.008313
0.001318
0.007992
0.0009799
0.0005403
0.002608
0.3043
0.6019
1.179e-05
0.5711
0.002135
0.1247
1.493e-05
0.002464
0.008126
0.004063
0.005849
0.007012
0.002764
0.01331
0.02201
0.003633
0.001395
0.001257
0.002094
0.578
0.000144
0.6004
0.5656
0.00848
0.000527
0.4199
0.01539
0.3199
0.0001662
0.005927
1.274e-05
6.849e-06
0.2587
1.527e-05
0.0004161
0.005188
0.01209
0.5222
0.517
0.3301
0.1153
0.002146
0.0002556
0.001508
0.4181
0.0002021
0.08439
0.0007386
0.0007424
0.5047
0.0005361
0.3372
0.5961
0.04243
0.0008322
0.007087
0.0164
0.3751
0.596
0.02245
0.002416
0.006664
0.5854
0.5468
0.3193
0.6375
0.5689
0.01514
0.0004402
0.302
0.5891
0.6118
0.4646
0.006927
0.005586
0.0004318
0.0001618
0.564
1.449e-05
0.5083
9.353e-05
0.3685
0.5762
0.1969
0.5647
0.0001088
0.5846
0.01069
0.004161
0.01659
0.006785
1.071e-05
0.0001395
0.001309
0.008044
0.0003441
0.004288
0.3454
0.000252
0.0119
0.004675
0.02391
0.0003214
0.003878
0.4894
0.4626
6.077e-05
0.02025
0.0007761
0.5904
0.2302
0.00311
4.374e-05
0.0003958
0.00165
0.03499
0.3116
7.193e-06
0.5688
0.001956
0.004254
0.0003718
0.5816
0.02248
0.3021
0.3336
0.0003112
0.5081
0.6073
0.0005448
0.005804
0.4262
0.001272
0.5814
0.1724
0.00138
0.003953
0.002486
0.00333
0.3792
0.566
0.5932
0.467
0.4027
0.08841
0.6263
0.01151
0.000731
0.5205
0.4329
0.03362
0.4309
0.3067
0.3055
0.02533
0.00213
0.002203
1.344e-05
0.009427
0.5752
0.008424
0.01061
1.795e-05
0.5871
0.0002355
0.5768
0.008565
0.01839
0.4919
0.3255
0.3328
0.001027
0.0002781
0.00148
0.5269
0.0002342
0.0004503
0.02017
0.000449
0.549
0.01327
0.006231
0.1352
0.004918
0.002896
1.282e-05
0.003828
0.5617
0.4741
0.4148
0.002168
0.5002
0.3074
0.2782
0.0009368
0.0002526
0.3135
0.005712
0.5143
0.5563
0.001399
0.001253
0.0005522
0.0004476
0.003322
0.1157
0.0008522
0.004287
0.4503
0.5746
0.4644
0.005008
1.281e-05
0.4905
0.4959
0.001444
0.001353
0.002753
0.003715
0.006015
0.5752
0.5703
9.854e-06
0.001154
2.041e-05
0.003868
9.009e-05
0.1235
0.4848
0.001219
0.1411
0.005106
0.3671
0.1522
0.5518
0.001636
0.008321
0.01003
0.5623
0.00104
0.00123
0.0004682
0.001375
0.00214
0.0002204
0.001122
0.04319
0.5461
0.4664
0.00449
0.007261
0.002995
0.4467
0.5286
0.001712
0.001033
0.5734
0.000737
0.0003663
0.01037
0.4401
9.965e-06
0.001381
0.09697
0.5659
0.3744
0.001186
0.0001961
0.001823
0.5662
0.5727
0.5767
0.005587
0.03708
0.00117
0.532
0.007154
0.004707
0.000997
0.359
0.0002361
0.004631
0.07018
0.009347
0.09038
0.05104
0.001325
0.006265
0.3108
0.3215
0.5728
0.0006717
0.0009782
5.985e-05
0.4328
0.3002
0.06949
0.001226
0.001919
0.224
0.002169
0.589
0.003697
0.3582
0.005078
0.005205
0.008829
0.576
0.6176
0.5729
0.5404
0.001192
0.0001901
0.1129
0.002784
0.007368
0.0004207
0.5236
0.5586
0.5692
0.4119
0.001091
0.5895
0.002155
0.4152
0.04686
0.5075
0.000681
0.006279
0.02827
0.6658
0.006656
0.004464
0.001299
0.3054
0.01239
0.004326
0.09421
0.002103
0.06493
0.04348
0.1668
0.001088
0.5089
0.4339
0.5897
0.00246
0.6255
0.5779
0.001368
0.4622
0.06276
0.0001758
0.5034
0.3356
0.0002825
0.005505
0.001371
3.68e-05
0.0003823
0.003075
0.3888
0.001022
0.5201
0.008589
0.0005377
0.01629
0.5691
0.5779
0.5581
0.0009764
0.5226
0.3772
0.004589
0.004971
0.002198
0.07585
0.431
0.1433
1.044e-05
0.02786
0.5953
0.001743
0.003075
0.5604
0.5206
0.5378
0.4348
0.1917
0.0004844
0.5775
0.004878
0.4643
0.002267
0.138
0.005142
0.003535
0.005135
0.6183
0.1431
0.5489
0.000691
0.3072
0.5763
0.008462
0.0001261
0.01012
0.0002772
0.4141
0.5682
0.02669
0.001029
0.3284
0.3344
0.003466
0.3362
0.001733
0.002216
0.003682
0.0003855
0.05269
0.02462
0.01456
0.5846
0.0006929
0.001266
0.004239
0.01437
0.1995
0.004754
0.0003487
0.0002774
0.5634
9.831e-06
0.4883
0.5915
0.5762
0.6247
0.0005952
0.04061
0.59
0.1045
0.5504
0.008169
0.008365
0.0001233
0.01693
0.3074
0.1702
1.95e-05
0.0003229
0.3742
0.5776
0.5848
0.6431
0.00911
0.01908
0.3706
0.4877
0.4872
0.0005851
0.01081
0.002604
0.179
0.09702
1.772e-05
0.0004789
0.000442
0.0004544
0.01879
0.573
0.001209
0.00046
0.001574
0.001741
0.0006683
0.002593
0.5842
0.00103
0.03885
0.001799
0.007857
0.5714
0.0004271
0.5623
0.0004393
0.02341
0.0003158
0.0001608
0.007055
0.001147
0.00594
0.002889
0.0002536
0.004345
1.458e-05
0.04591
0.003724
0.5262
0.00135
0.00521
0.0006969
0.2419
0.004583
0.005083
0.4222
0.0025
3.732e-05
0.0002289
0.5662
0.5713
0.002649
0.0005061
0.005386
0.5533
0.01034
0.09433
0.001118
0.001226
0.0003474
0.5394
0.002396
0.002208
0.411
0.4088
0.4497
0.0006294
0.02468
0.001388
0.002582
0.0009693
0.5286
0.3612
8.722e-06
0.003294
0.193
0.4217
0.04749
0.007151
0.5436
0.05213
0.001335
0.00285
0.4141
0.0007097
0.00124
0.5882
0.5846
0.5532
0.0002145
0.3273
0.1524
0.00531
9.142e-06
0.4638
0.0003461
0.0005215
0.01006
0.04952
0.006118
0.0002191
0.02201
0.5123
0.1318
0.00209
0.4715
0.0005678
0.4176
0.2884
0.2884
0.0009924
0.001367
0.564
0.0006741
0.5861
0.5078
0.5115
0.003377
0.02271
0.001686
0.005027
0.1135
0.01708
6.28e-05
0.09194
0.581
0.3273
0.2131
0.00321
0.3369
0.335
0.1973
0.007444
0.3188
1.384e-05
0.05696
1.363e-05
0.001773
0.001142
0.57
0.0007387
0.005304
0.001469
0.01842
0.0009501
0.0009198
0.01183
0.01943
0.571
0.01215
0.6014
0.0005373
0.09401
0.03796
0.0754
0.1103
0.0001926
0.008275
0.00922
0.002109
0.006711
0.5737
0.1967
0.00499
0.004711
0.0001827
0.001802
0.5458
0.424
0.2518
0.004713
0.5013
2.734e-05
0.5724
0.0006735
0.3668
0.55
0.005462
0.006848
0.02127
0.5751
0.4892
0.0006044
0.3502
0.0002117
0.001829
0.02382
0.1045
0.006438
0.4273
0.4439
0.003434
0.003219
0.008162
0.0002206
0.017
0.001951
0.636
0.4965
0.08481
0.003333
0.01176
0.01914
0.001506
0.5554
0.606
0.007825
0.4298
0.4307
0.001126
0.01115
0.000735
0.0187
0.001337
0.006602
1.695e-05
0.002025
0.5694
0.5561
2.043e-05
0.001976
0.002177
0.0009494
5.685e-05
0.002817
0.5733
3.385e-05
0.004053
0.4023
0.1112
0.0007643
0.5344
6.913e-05
0.4391
0.3336
0.001373
0.5006
0.0009516
9.316e-05
0.5918
0.007402
1.445e-05
1.727e-05
1.718e-05
0.0001641
0.5416
0.03905
0.0007111
1.378e-05
0.5149
0.002748
0.00675
0.6165
0.2419
0.4089
0.00222
0.01396
0.003297
0.4108
0.0003621
1.622e-05
0.07886
0.002589
0.007996
0.2379
8.567e-05
0.6644
0.001038
2.036e-05
0.003266
0.2898
0.5401
0.312
0.08212
0.5152
0.003003
0.009111
0.0003045
0.0041
0.02217
0.005728
0.2047
0.2889
0.5849
0.5629
6.945e-05
0.003562
0.002383
0.5593
0.5438
0.01327
0.02381
0.006965
0.003378
0.5099
0.0004197
0.01128
0.003055
0.0003497
0.003613
0.001996
0.3429
0.0005894
0.003481
0.005493
0.09029
0.001659
0.0009694
0.3685
0.004661
0.4447
0.1482
0.0007002
0.5297
0.5574
0.0004049
0.000761
0.0001036
0.2272
0.0008416
0.5766
0.008806
0.5747
0.008967
0.5849
0.004607
0.02442
0.002112
0.09172
0.01802
0.004397
0.002037
0.006582
0.5981
0.4884
0.0002193
0.474
0.03448
0.3184
0.3171
0.004604
0.4887
0.001584
0.592
0.01347
0.02087
0.04774
0.01303
0.003893
0.5635
0.2951
0.0017
0.0327
0.003285
0.0002591
0.5752
0.433
0.0257
0.00496
0.3032
0.01317
0.005257
0.02884