/*--------------------------------*- C++ -*----------------------------------*\
  =========                 |
  \\      /  F ield         | OpenFOAM: The Open Source CFD Toolbox
   \\    /   O peration     | Website:  https://openfoam.org
    \\  /    A nd           | Version:  8
     \\/     M anipulation  |
\*---------------------------------------------------------------------------*/
FoamFile
{
    version     2.0;
    format      ascii;
    class       volScalarField;
    location    "10";
    object      epsilon;
}
// * * * * * * * * * * * * * * * * * * * * * * * * * * * * * * * * * * * * * //

dimensions      [0 2 -3 0 0 0 0];

internalField   nonuniform List<scalar> 
63564
(
39.46
11.38
35.88
28.22
29.09
40.05
67.75
27.5
10.84
16.25
0.08286
0.1201
10.9
0.3658
4.742
4.859
10.8
12.34
0.895
2.115
0.3117
0.3545
2.11
0.12
34.19
0.08379
2.066
0.2074
0.5902
10.34
0.8074
0.2246
0.223
0.1514
0.337
2.564
0.06389
0.3614
0.3553
0.7428
10.05
0.1614
11.28
0.275
9.648
1.276
1.723
0.2081
0.2535
16.82
0.1427
0.3647
0.7173
1.127
0.2477
0.06235
0.2475
0.2518
16.83
0.4936
3.843
1.084
0.1876
1.268
0.364
0.6203
0.2714
5.253
0.3575
0.03595
0.3437
0.03769
0.5899
0.3597
0.7996
0.6341
0.3494
0.2045
0.2051
1.349
0.7248
0.3629
2.349
0.3451
1.067
0.3583
0.4121
1.26
0.449
0.4099
0.1496
0.8405
1.1
0.0349
6.407
0.2194
23.82
0.299
21.2
0.4174
0.07564
0.2442
0.4502
17.89
1.517
0.4631
0.7979
1.439
1.075
0.3513
0.6944
0.2085
0.386
0.1548
11.34
0.3831
0.3627
37.05
0.7505
1.077
2.409
0.2784
0.6005
3.699
10.79
6.501
1.691
0.3859
0.2387
0.14
0.8669
2.36
0.5257
0.5358
0.1878
0.7545
0.2835
0.829
0.4885
5.556
0.4351
0.3413
0.8823
1.364
0.2779
0.5202
1.548
0.1534
1.746
0.4019
0.1255
0.8044
0.5191
2.407
0.7568
0.1701
0.1701
0.4713
0.03647
0.7425
0.8178
0.8801
0.6221
1.529
0.1143
0.3949
0.826
0.7832
0.3867
0.7805
0.1724
0.3209
0.0841
0.5779
0.5846
1.564
0.5965
0.07512
7.855
0.2252
0.1216
5.17
1.979
0.2253
0.218
0.8428
0.9036
0.8216
1.915
0.4014
0.4347
0.2372
0.1951
0.7059
0.3236
0.4481
0.3352
2.148
0.518
0.2114
2.268
0.5024
0.4171
0.08496
1.117
0.8746
0.5537
0.03669
1.076
0.2445
0.3135
1.786
0.2899
2.214
0.2643
0.4016
1.039
0.2286
1.056
0.5215
0.8231
0.23
0.1567
0.3944
0.1528
0.724
0.6712
1.265
1.093
0.6109
1.165
0.8719
11.55
0.3861
0.3141
0.2161
11.58
1.946
11.61
0.77
2.124
0.1617
0.3292
0.3186
0.2296
3.848
0.2865
6.061
1
0.2252
1.237
0.8141
0.5217
1.351
0.1842
0.5233
0.417
0.81
0.5626
0.864
0.7705
0.2221
0.7412
0.3089
0.487
1.777
0.3814
0.25
0.9009
0.2371
0.8994
2.109
0.8184
0.2609
10.61
0.5395
0.2306
0.417
0.1949
0.5207
0.239
1.503
0.4616
0.5731
1.055
2.044
0.8496
0.5618
0.5559
0.4035
0.9101
0.5801
0.4225
0.66
11.43
1.094
0.1608
0.3082
0.8101
0.5691
2.93
2.02
0.7676
0.3079
0.5118
0.6092
2.57
0.3693
1.664
2.195
0.7186
0.759
40.07
1.021
0.2605
0.2907
0.4304
1.017
1.229
1.143
0.7673
0.3956
2.523
1.038
0.1545
0.4581
1.268
2.001
1.437
0.1552
0.07339
0.08325
1.053
5.029
0.8516
0.2206
2.191
0.1012
0.2754
0.8071
0.3255
0.1293
0.1855
45.05
0.5554
0.1137
0.2345
2.645
0.4932
1.278
0.3786
1.023
1.282
0.2114
1.026
0.8867
0.4038
0.7422
0.9921
0.3822
0.4845
0.2122
0.1474
2.037
0.2263
0.1599
0.7387
0.3199
0.7061
0.6567
11.91
0.6538
0.7918
0.5397
0.2725
31.38
0.3873
0.8308
0.9531
0.2404
0.4686
0.3959
0.6815
0.1088
0.4447
0.3022
0.4239
0.3057
0.1518
0.1606
0.4768
0.2284
9.686
0.2739
0.3252
0.8704
1.342
11.09
0.06704
0.301
1.217
0.6856
2.67
0.8903
1.186
0.9426
0.2259
0.2622
0.7732
0.05172
0.8245
13.75
2.802
4.627
52.28
0.5696
0.9373
0.1079
4.749
0.5904
0.998
0.1438
0.1042
0.2996
1.171
6.467
0.4942
0.3141
0.559
0.8669
0.9256
0.3728
0.1496
0.1052
13.59
7.849
0.2414
1.697
1.992
0.6472
6.415
0.1565
4.248
0.1998
2.169
12.77
0.3582
1.103
0.9266
0.1028
0.04085
5.733
0.21
2.581
0.4392
0.5501
0.259
0.9839
0.4629
0.6183
0.183
0.5775
2.095
1.647
0.7327
1
0.7957
0.1721
0.4523
2.896
4.376
0.2616
0.2001
0.2585
0.3098
0.5459
0.5123
0.5611
0.1334
1.605
0.4018
0.2377
1.598
0.2641
0.1461
0.3437
2.656
1.812
0.1459
0.855
4.75
0.9175
0.4036
6.018
0.9432
0.5936
0.6704
0.2546
0.4911
1.421
0.2698
0.4304
1.233
11.49
0.09933
0.7267
0.4456
0.4825
0.5587
2.943
0.6453
3.799
0.87
3.592
0.107
1.125
0.5772
0.245
0.8709
1.617
0.2054
0.5403
0.9663
0.2455
1.157
0.827
2.178
0.6615
0.3147
1.898
0.7096
0.533
0.3015
0.6736
1.064
3.536
0.1983
4.526
0.3005
0.913
1.251
3.783
5.18
0.9474
0.9778
0.1975
0.09963
1.681
9.525
0.2912
0.6568
1.361
1.379
0.3502
0.703
0.1559
5.058
0.4553
4.67
0.2164
6.3
0.7678
12.02
0.5956
2.482
0.349
23.54
0.1045
1.871
0.1873
4.456
1.343
1.149
0.07567
0.5463
0.428
0.3902
0.1605
2.28
0.2003
0.1942
0.414
4.923
9.84
1.399
0.3722
0.3087
0.1683
0.9155
0.4139
1.064
1.699
1.06
0.4728
1.174
0.1228
0.6694
0.7346
0.3369
16.44
0.8087
0.2988
24.42
0.2746
0.6793
0.303
0.128
0.07381
0.3372
0.1697
2.355
0.4006
0.4806
0.8813
0.2019
0.416
0.1689
0.3607
0.3168
0.5022
0.1157
0.4367
0.1652
0.1814
0.121
1.052
0.3131
12.71
0.5667
0.6857
0.8117
0.326
1.033
3.311
2.913
0.3529
2.074
0.1228
1.203
0.148
0.3386
0.4558
0.1544
0.1584
4.569
0.398
0.7366
6.056
0.4613
0.5131
67.1
0.416
0.4404
0.639
0.4252
0.1858
0.3991
0.1992
0.1893
2.753
0.3755
1.071
0.09913
0.9658
0.3792
14.72
1.47
3.764
0.5873
0.09073
2.265
0.3023
0.8015
1.932
0.8745
0.9195
0.1209
59.2
0.4105
0.4331
0.06781
0.12
0.1645
1.611
0.3303
2.464
0.8966
0.2124
0.5736
0.5585
0.7326
0.407
2.939
0.07359
0.236
0.388
0.9288
0.07329
0.8121
12
0.07878
5.446
0.379
1.759
4.013
0.1955
0.3328
0.7738
1.292
0.4124
1.12
1.788
1.253
50.7
0.5004
0.1983
1.941
0.9683
0.1248
0.2586
4.347
0.7988
0.6805
0.2416
2.192
1.046
0.2494
1.735
1.666
1.958
0.6733
0.8103
0.2693
0.2151
1.041
1.647
0.1045
0.882
4.241
0.4143
0.924
0.8581
0.4726
0.5804
0.6735
0.5512
0.1479
0.7424
4.626
0.1392
1.582
1.133
3.971
0.416
0.1342
0.1254
0.3059
0.122
0.6649
0.387
0.3408
0.7213
1.418
0.0445
0.1926
0.3069
1.32
0.1048
0.7427
0.362
0.3116
0.5974
0.2086
0.2517
5.832
0.4377
0.9547
0.2443
0.239
0.8917
7.329
4.365
0.5169
3.403
0.16
3.554
0.1562
4.408
0.4764
2.021
0.2407
2.321
0.9634
1.737
16.81
0.783
0.4954
0.8126
0.1972
0.2723
1.185
0.631
0.7518
3.272
0.2707
0.3212
0.394
0.04684
0.7619
0.118
0.4863
1.618
0.2442
0.7725
2.032
0.4231
12.06
0.2175
0.1679
1.198
0.2207
0.1832
1.328
0.2351
0.1497
0.03597
0.1118
0.2178
13.75
0.3198
0.3159
1.256
0.4925
0.4254
3.356
2.93
8.694
0.166
1.317
0.1053
0.3225
21.17
0.2091
0.03684
2.426
0.3554
0.2103
0.2158
5.576
0.1537
0.4025
0.1575
0.7949
0.4694
0.9999
3.638
0.1347
0.08
2.496
0.4296
1.188
1.338
0.1703
0.2946
0.2546
1.365
0.4214
0.6446
0.4814
0.1045
0.2652
0.09484
4.086
0.3948
0.3613
0.3563
0.1706
0.4302
0.07808
4.117
0.8469
0.2105
0.1956
0.5596
1.174
0.1632
2.728
0.6346
0.339
0.8955
0.1196
1.723
0.4924
5.999
0.1534
0.7696
0.1711
0.1625
49.58
0.2234
0.8051
0.6719
0.8196
0.3717
0.1787
0.3277
0.06117
0.5199
0.7901
0.9035
0.4185
1.148
0.5623
2.635
1.42
0.5745
0.4416
3.34
1.108
0.3497
0.2611
0.5267
0.811
0.5731
0.2759
0.1781
0.4636
0.5505
0.4291
0.7464
0.6711
1.404
0.1951
0.1381
0.5429
1.417
1.416
0.5316
1.195
7.768
0.2677
0.2617
15.6
0.4148
0.288
0.1064
0.4499
1.262
0.1747
0.08267
5.032
0.5224
0.2463
0.1347
7.4
0.8821
0.6294
0.2791
0.5871
1.672
0.1274
0.9881
0.6765
3.793
0.2334
2.084
0.1062
0.07041
4.047
0.1465
0.8203
0.1902
0.4466
4.318
0.3854
0.425
0.2132
5.602
0.3737
0.3843
2.137
0.2244
1.843
3.492
1.043
0.2537
1.585
0.9955
0.2748
0.3896
0.1137
0.2439
0.7865
1.055
0.846
4.686
0.2095
1.192
0.3339
0.1652
0.4372
0.5098
0.883
0.3705
0.4784
3.133
1.406
2.11
1.143
0.1978
1.623
0.269
0.6941
3.485
0.1622
0.03707
0.8046
0.233
0.917
39.47
0.2701
0.548
3.805
0.4227
3.814
0.6869
0.8354
0.3909
0.5482
4.725
0.6469
1.04
0.1193
0.3064
0.3259
0.5403
0.4152
3.755
0.5507
0.2824
1.424
2.481
1.465
0.6675
0.6081
0.4598
2.343
0.3905
0.3164
2.234
1.078
0.3402
0.3039
0.4375
2.971
0.04627
0.7457
0.543
0.4984
0.1913
0.1648
0.9031
1.041
0.3052
1.358
0.1901
0.1506
0.3448
0.3103
14.47
0.1388
0.2063
1.396
0.2343
0.6303
0.1796
4.991
8.831
5.02
9.416
0.1707
0.2999
0.1536
8.467
3.572
0.4065
7.703
0.6254
6.123
0.3491
0.2891
4.387
0.1297
0.8847
0.1031
0.6078
0.7998
1.508
0.1194
1.771
1.061
0.1703
0.6137
0.5753
0.2978
0.831
0.8486
0.5926
0.8109
4.717
15.03
10.76
0.4561
5.946
1.646
1.881
0.6396
1.174
0.1674
0.4189
1.955
0.2154
0.3379
9.025
0.2912
0.5733
0.3124
0.2962
0.1362
0.4724
0.07816
1.581
1.395
3.867
8.223
0.2434
0.1278
0.6061
0.5863
0.3235
6.088
3.779
0.3402
1.185
0.1463
0.1679
5.954
0.1801
1.61
0.4849
0.3103
0.3477
0.586
0.06652
0.3727
2.901
6.123
0.1554
10.63
0.1399
0.04063
3.994
0.5782
1.859
0.1656
0.5089
0.4648
0.175
1.993
0.2113
13.43
0.9589
0.4091
0.3489
1.76
0.6484
0.1196
3.808
0.1204
0.4497
0.2146
0.5812
0.156
0.2484
0.5719
1.049
1.415
0.313
0.9324
1.475
3.307
1.617
1.072
0.188
1.308
0.2468
0.9279
1.534
1.297
0.7651
0.6577
0.09786
0.6177
3.844
0.5269
0.7709
0.6428
0.6046
0.9172
0.3263
0.8499
0.2399
0.2918
10.94
2.725
2.28
0.2643
0.354
6.137
0.2524
0.7793
0.1608
0.5534
0.4392
0.5324
0.5332
5.718
0.5065
17.35
0.2156
2.317
1.24
0.9598
3.916
2.352
0.3681
0.522
0.468
0.1164
0.4304
0.245
0.5156
27.06
0.09402
0.8729
3.784
0.1707
0.2132
4.835
1.923
0.3844
3.562
0.2205
0.7398
0.5211
0.09728
0.5363
0.3661
0.1494
0.2381
0.759
0.1285
0.9611
4.133
1.493
0.06988
5.25
0.5734
1.023
0.1215
4.232
0.2634
0.06622
1.117
0.805
0.3678
0.202
2.19
0.2626
0.3927
0.7274
0.1382
0.7848
0.4461
1.078
5.701
0.3345
0.7964
0.7747
0.05414
0.4673
4.768
1.104
0.1606
1.415
0.4447
0.3966
1.044
0.2911
1.537
0.4482
0.1913
1.801
2.108
0.8571
0.8306
1.515
3.512
0.182
0.06637
0.3153
0.9206
0.5507
0.1543
4.32
3.951
0.936
1.157
0.1379
0.4278
1.674
2.032
0.5564
0.3067
0.3629
0.8952
0.5108
0.1543
0.4089
0.5325
0.4287
2.218
10.06
4.519
0.4263
0.974
0.6482
1.935
0.1301
3.258
1.869
0.2423
0.1549
11.87
0.8863
0.2166
0.9301
0.5387
7.627
0.2734
0.5485
0.2937
1.102
0.6173
0.5401
0.1485
0.1563
0.1374
0.7337
0.9158
0.2529
0.1691
1.099
0.4107
4.444
0.2627
0.3527
2.068
4.617
0.3977
0.751
0.8948
0.8327
0.8263
0.03835
0.1931
0.2865
0.5084
0.07999
14.73
0.7521
0.6806
0.7702
0.583
0.9194
1.159
0.5347
1.041
1.34
0.1679
1.056
0.838
10.2
1.532
0.2474
0.1813
1.65
0.1223
0.229
0.9291
0.4628
0.8304
0.6146
1.2
0.07767
0.1159
0.326
0.4101
7.762
1.328
0.4139
1.023
0.9444
0.7414
2.184
0.09991
0.114
14.8
0.1909
0.1819
0.6122
0.1896
0.4774
1.783
0.2274
4.977
5.146
2.595
0.7929
0.164
0.4878
0.346
0.1924
0.3942
0.2678
0.312
0.1095
4.016
0.6421
1.418
0.5127
2.275
0.2229
1.061
0.6106
4.446
0.3568
0.3804
0.2609
0.4575
0.4835
0.224
0.2492
5.372
0.2907
0.4327
0.1647
0.04093
0.2711
0.8265
0.06422
0.2672
3.395
3.95
0.5518
0.06393
0.9722
0.6039
0.1305
0.6632
0.1708
0.6968
0.1451
3.187
0.6509
4.657
2.011
0.2886
0.2265
1.177
0.3562
10.76
2.391
0.241
0.2631
0.2421
0.7699
0.6081
1.361
0.7468
0.2966
0.2604
1.161
0.2305
4.496
0.2745
0.7926
0.3698
0.1918
0.5293
0.3665
72.5
2.499
0.362
0.2509
0.3983
0.2825
0.3745
0.1596
0.2363
0.2769
0.1939
0.7341
0.1835
3.828
0.7114
5.033
0.2477
0.8304
0.2472
2.813
0.1574
0.2433
0.2461
0.3901
0.5553
0.6543
0.9395
0.9089
4.9
0.3534
0.619
0.1589
7.921
1.279
0.4692
0.7659
0.3395
0.2555
1.877
0.4555
0.06806
0.5058
1.188
0.3201
0.8129
1.241
0.3181
7.154
0.3385
0.2225
1.325
0.838
0.6726
0.1256
0.1361
0.1366
0.1965
0.07544
0.2211
1.329
0.0871
0.923
0.5004
0.1217
3.906
6.273
0.4339
0.2848
0.6968
0.4198
1.076
0.7999
3.457
0.3175
0.06242
18.66
0.6852
0.486
0.2703
3.136
2.739
3.577
0.07726
1.433
0.1711
1.869
0.4981
0.5455
2.313
0.569
0.294
0.05584
0.2309
0.2313
6.503
1.546
0.07328
0.4771
2.281
1.002
0.4086
0.2928
0.2065
0.1927
0.4396
11.38
0.1141
0.205
0.2838
2.658
0.7789
0.1597
0.3039
0.2799
0.1544
0.9111
1.934
0.07868
0.4169
0.8992
3.961
0.05632
0.7326
0.148
0.05899
0.155
0.2381
0.2528
0.3319
0.2759
1.451
0.6661
0.4954
0.5302
0.7263
0.5369
1.376
3.515
0.04451
1.688
0.1925
0.7253
0.1386
1.037
0.1283
0.2261
0.5899
0.547
1.212
0.6507
0.8082
0.4692
0.2096
2.275
0.1663
2.284
0.3167
2.701
0.1858
0.2899
0.9236
0.5711
0.8448
0.242
0.3519
0.3176
19.22
0.5982
0.248
0.4998
5.619
0.6992
4.111
0.6857
0.2456
0.9044
0.3654
0.3846
1.032
0.8319
0.6643
1.354
0.1988
0.5917
0.3091
29.39
0.1701
0.2258
0.5418
0.6744
0.2717
0.262
3.323
0.4807
0.8132
0.5092
0.2334
0.807
2.74
0.3341
0.3244
0.5574
1.173
1.73
0.07782
10.76
1.384
0.8089
0.5187
0.5698
2.905
0.2925
17.86
0.5392
0.6445
0.9048
0.2598
0.6397
0.3532
0.6364
0.2339
0.5601
0.4497
0.2492
1.062
0.342
1.42
1.051
0.1606
2.087
1.332
1.153
1.85
2.201
0.9171
0.1439
1.696
3.964
0.6163
0.4027
0.1571
0.3178
0.2549
2.124
0.2411
0.5829
0.1649
2.33
1.777
0.5359
1.374
2.099
3.279
0.1705
0.4128
0.1988
0.1729
0.1916
0.4159
0.5637
0.06973
0.4133
0.2743
9.275
0.1122
1.651
0.1189
0.816
0.2203
0.1847
1.422
0.7962
0.3019
1.412
0.2068
0.4138
1.099
0.3389
0.2902
0.2374
1.051
0.4023
0.3119
0.3487
0.3028
0.3509
0.2954
0.6438
0.2109
0.8006
1.234
0.217
0.7992
0.9222
2.181
0.9234
0.9378
0.6025
0.1235
0.666
0.322
0.6908
0.1788
0.4204
1.354
1.33
0.2726
0.4654
0.2888
0.3242
0.2709
0.1239
0.8659
5.513
0.368
24.65
1.999
6.62
0.2542
0.2036
0.244
7.054
0.2322
0.8579
5.935
0.2924
0.2009
7.402
0.4373
0.2675
0.8521
2.176
1.068
0.4175
1.034
0.972
0.1298
0.5319
0.06316
0.7843
0.2151
11.76
0.2924
0.7205
0.945
1.838
0.09363
0.1527
0.1182
0.5394
0.7342
0.396
0.5222
1.481
0.3719
0.3216
1.103
0.7086
0.2428
0.8948
0.8093
6.821
1.246
1.972
0.4059
2.303
0.08256
9.913
0.3452
0.7301
0.1539
0.3174
0.9814
0.3902
0.2702
0.2054
1.295
0.3957
0.3565
0.22
0.4792
0.8268
0.3557
0.3511
2.104
0.03951
1.395
0.1453
0.1547
1.103
0.4868
0.4379
0.2206
1.911
0.3449
0.3123
0.17
0.8034
0.1032
0.1552
0.1563
0.148
7.186
0.7333
0.275
0.2197
0.3022
0.5339
0.4898
0.5959
3.133
0.1786
0.0925
0.1989
0.08578
0.2842
0.916
11.35
0.5356
0.7877
12.93
0.2508
8.956
0.4395
0.1714
0.03475
0.2978
0.06285
2.498
0.2171
0.1949
1.426
0.1608
4.898
0.4713
0.9215
3.041
0.09699
0.2953
0.5949
0.2786
5.429
0.2136
0.0585
0.3158
0.4399
0.7199
0.2265
3.394
0.6857
0.2547
0.1411
2.645
1.008
1.499
1.255
0.1798
0.1286
0.661
0.3118
0.3246
6.941
0.3093
3.515
2.705
0.3592
0.4853
0.9778
0.2546
0.423
0.4304
0.8202
4.628
2.159
4.576
2.69
2.299
4.102
0.6717
0.49
2.145
0.07102
2.795
0.5741
0.09964
0.4717
0.1966
0.1709
0.5561
0.7771
0.908
0.2011
13.42
3.66
0.4987
0.8318
0.5408
1.212
0.732
0.1701
0.1618
0.8033
0.7354
0.1313
13.47
1.383
4.455
0.154
0.5354
0.6777
0.2472
0.2842
2.133
0.7717
2.193
1.04
0.855
0.4535
0.6345
11.54
2.166
0.2145
0.1279
0.9392
1.095
0.8119
0.2161
0.1533
0.4919
2.336
7.807
1.118
1.644
0.7953
0.8142
3.58
12.34
1.153
0.2324
0.2695
0.4086
2.569
0.6975
9.325
0.9123
1.358
4.005
0.5473
0.4713
0.1765
0.9707
8.171
0.7773
1.001
8.785
0.5826
0.8985
2.008
0.2225
0.2513
0.7569
4.048
0.2667
0.1681
0.3061
9.629
0.4652
0.4559
0.3719
1.682
0.7927
0.09356
0.5001
0.06662
0.2397
1.66
0.3146
0.7457
1.584
0.3222
1.933
1.939
0.3792
0.2471
0.1233
1.37
3.088
4.46
0.03622
0.4089
1.517
0.4402
0.2499
0.3215
0.4011
0.1989
0.5928
0.5262
1.326
0.2992
0.1378
3.192
0.706
0.464
1.672
0.7245
0.5199
0.2125
12.55
0.9958
0.6828
2.169
0.1543
0.6021
0.8746
0.1955
0.2921
0.339
0.36
0.1909
0.3984
2.66
0.2257
0.1244
44.12
2.862
0.6205
0.1265
0.6958
0.2658
0.2228
1.325
0.2293
5.928
0.2118
1.14
0.1501
8.486
0.7208
0.6589
1.326
6.391
0.662
1.695
0.2998
3.527
3.331
1.683
0.6876
0.9388
0.2266
0.3687
5.53
16.57
0.9786
0.3983
0.1904
0.8302
0.2013
4.627
0.3354
0.2962
0.1443
0.2889
0.477
1.792
0.6479
0.4373
0.4196
2.512
0.9787
0.506
4.817
0.2089
0.1717
1.563
0.7123
0.3145
15.89
1.915
0.2621
0.2482
0.2522
0.7399
1.386
0.5975
1.361
1.365
1.41
2.584
0.1092
0.2611
0.4355
1.422
54.47
0.244
0.7832
4.479
0.1536
0.1951
0.6387
0.3666
0.486
4.103
1.299
0.2109
1.414
0.9225
0.2917
0.07033
0.2137
0.6036
0.134
0.3534
0.3937
6.428
0.7021
0.2169
0.2534
0.2806
11.89
0.8115
0.2303
0.475
5.001
4.493
0.8495
0.6518
0.2861
5.088
0.1996
0.2487
4.665
0.269
0.8636
0.4834
0.09449
0.4787
1.586
0.4628
0.2888
0.19
0.727
3.404
0.5279
0.1479
0.9961
0.1852
0.2019
0.3893
1.673
0.4979
0.5126
0.5241
6.874
3.393
1.007
0.6656
0.7696
2.262
0.3591
0.6849
1.828
0.6538
0.3702
0.3857
1.05
0.0524
8.256
0.6825
1.565
1.076
2.405
2.869
0.3095
10.08
0.113
0.244
0.3512
1.99
3.961
5.831
1.028
4.981
0.9787
1.329
0.1928
0.2147
1.5
2.051
13.45
0.5026
0.1391
0.3851
0.2049
0.1138
0.6122
0.7717
0.2374
0.1185
0.671
1.389
3.914
0.835
1.894
0.3471
12.86
2.023
1.154
0.06479
0.2173
0.2724
0.6633
0.8601
0.3488
0.7442
1.137
0.3881
0.07456
0.1632
2.923
1.85
4.156
2.64
0.4579
1.204
0.1712
4.375
0.1225
0.2378
0.4258
0.3816
1.343
1.048
0.5595
0.2634
1.673
3.068
0.3244
0.7191
0.7881
0.2993
0.3502
0.5605
1.355
10.8
0.7295
0.707
1.218
0.2108
0.2058
1.021
0.4008
0.8545
0.5717
0.4459
1.136
2.268
3.417
0.6
2.686
2.433
1.255
0.8115
0.1487
0.5106
0.6859
0.4808
3.256
3.619
0.2428
0.3423
4.34
0.3292
52.65
0.2509
0.6845
4.027
11.24
28.9
0.07234
0.2736
5.389
0.3009
14.48
1.338
0.07809
1.202
0.5273
0.3516
0.1254
0.4653
1.261
0.1685
1.103
11.17
10.71
0.4589
2.747
1.971
0.829
0.1533
0.2103
0.4131
0.401
0.3434
0.2056
2.515
0.3665
0.2824
0.3129
0.08375
0.4014
0.8113
1.11
0.2208
3.444
1.478
1.245
0.5552
0.3211
9.568
2.825
0.8178
0.6973
0.7755
1.099
0.2878
1.4
15.35
0.559
0.7905
0.3985
1.286
1.046
1.021
0.1774
1.004
0.3847
0.1722
0.206
0.4883
0.3592
0.8714
0.2436
0.6769
1.482
0.7419
0.2869
1.205
23.6
0.9117
7.485
0.3017
0.2594
0.5634
0.3873
0.419
1.744
0.7527
0.6892
0.2324
10.01
2.239
0.3552
0.7661
0.3351
0.7606
0.9312
0.5706
0.6909
0.2544
1.292
0.284
0.415
1.619
1.946
1.404
1.361
0.09273
0.115
0.0889
2.729
0.1553
0.3362
0.2137
0.2896
4.637
0.7656
0.7895
0.6438
0.8711
1.712
0.3331
0.3956
0.469
0.333
0.147
2.401
0.6717
0.5174
0.2424
0.3261
0.3592
0.61
4.451
0.06742
4.156
1.857
0.3404
0.9267
0.1241
0.4094
1.245
0.3499
0.5266
0.165
0.2572
0.9811
0.4035
3.071
2.075
2.003
0.7095
1.337
0.3245
4.844
0.1552
0.8469
1.977
0.3075
0.3522
0.7731
1.044
0.3454
0.5196
0.1132
0.6732
0.1554
0.9349
49.16
0.2319
2.497
1.278
1.031
0.1989
1.297
0.6102
0.4538
0.1789
0.6471
2.474
0.2675
0.3021
1.333
0.1624
0.554
0.5627
0.3299
1.747
2.13
0.1802
1.812
47.63
0.8485
0.3624
4.22
2.221
1.089
1.423
0.4468
4.761
2.256
0.4484
4.579
0.7678
0.4154
2.091
3.962
4.631
0.7332
2.232
0.6842
2.318
2.946
0.271
6.186
1.021
6.071
0.7951
0.4436
1.217
0.1673
1.021
0.4347
0.3153
0.17
0.7605
1.339
0.3333
0.161
0.1914
0.8833
3.818
6.424
0.7905
0.554
0.9102
4.226
1.873
1.084
0.8594
0.3288
3.667
1.521
0.1668
0.05476
0.2352
1.26
3.316
3.797
0.8283
1.03
0.8515
0.3001
1.518
0.8893
0.7515
0.8359
0.1766
0.04039
1.131
1.416
0.2152
4.937
0.07041
1.31
0.6242
0.367
0.1855
0.1372
0.4459
0.2705
0.3439
0.1081
3.574
3.295
0.8784
0.2342
1.381
4.575
0.5752
0.0974
2.464
3.351
1.342
0.03697
0.3451
0.8273
4.644
0.0563
26.49
0.8534
2.863
0.7901
0.2738
17.95
2.826
0.2439
0.8875
0.288
9.406
4.171
0.3504
0.1735
2.151
0.1873
7.391
0.4691
1.678
0.6565
0.3093
0.2039
0.5764
0.242
0.2156
0.399
2.037
0.5494
0.2536
4.326
3.11
4.691
0.5157
0.9391
1.35
0.8999
0.1771
0.4932
0.3341
5.058
0.2519
0.3246
0.583
0.2686
0.7441
0.731
0.6394
0.213
0.6
0.7045
19.58
2.834
0.8374
0.3209
3.19
11.73
1.562
0.5656
0.1973
0.0399
0.5668
53.36
0.3629
1.57
0.5431
1.807
1.44
0.2033
0.3921
0.1082
0.6472
0.2866
0.3972
2.174
0.6232
0.08592
4.672
0.1142
0.6539
0.4345
1.058
1.024
0.6601
0.2402
0.8057
0.7704
0.9574
1.344
0.1575
1.751
0.2701
0.738
4.051
0.8947
1.441
1.686
7.571
0.6811
0.7217
0.4157
0.3715
0.1197
0.2868
0.4146
0.1292
0.4611
0.7752
0.975
0.2064
0.8777
0.3901
0.09753
6.955
0.3169
1.003
4.539
0.1251
1.01
0.4998
1.119
0.2474
1.32
0.6255
0.2522
0.26
0.3095
0.3531
0.3613
0.3064
1.251
8.862
5.386
7.718
3.044
1.503
0.8128
0.1464
0.2389
0.06621
0.1228
0.04293
2.589
1.054
12.25
2
0.9183
1.073
0.3048
3.263
0.4821
0.3747
0.2651
1.345
3.944
0.7043
0.1562
0.3187
0.3525
0.6287
0.7306
0.1766
21.31
0.1392
6.588
0.4726
0.06273
0.9613
0.1918
2.81
1.641
0.3247
2.588
0.4723
0.1393
1.681
0.5383
0.5281
2.093
0.6699
1.368
0.9991
0.98
1.489
0.3164
0.4926
1.465
1.405
0.5038
0.3504
0.8364
2.179
0.6997
1.899
0.4777
0.5654
2.625
1.321
0.1765
0.2018
0.3954
0.2613
0.7075
0.2888
0.1406
0.8194
12.29
0.07624
0.2525
0.2297
4.181
0.1182
0.7288
0.9977
0.4388
2.231
0.1931
0.1967
3.025
0.2862
0.1307
13.36
1.519
3.386
0.2594
0.7912
0.6725
1.704
0.2198
1.568
0.1946
1.671
0.3673
0.7545
0.6842
10.07
1.197
0.3168
13.01
0.1897
0.7253
0.8341
0.2263
0.2585
0.122
2.093
0.1507
0.6373
0.7457
2.794
0.9482
0.7543
0.2276
0.709
0.4046
0.5567
0.1635
0.2965
0.7608
0.825
1.255
0.5333
2.201
0.2831
0.7596
0.7068
3.136
0.8335
0.5582
0.2715
3.373
0.3553
0.8642
0.467
0.1738
0.3103
1.206
2.576
0.3431
0.2724
0.4384
1.182
0.1142
1.044
0.1331
0.4206
0.3688
0.7707
1.241
0.2536
2.428
0.1017
0.2046
6.622
0.2058
0.2718
0.399
5.54
1.607
0.1302
11.67
0.1509
0.7021
1.507
0.1999
12.56
1.508
0.6094
3.239
1.407
0.6767
0.2607
0.1763
2.383
0.3393
0.2533
1.36
2.078
0.4456
0.07222
0.5399
0.4323
0.4469
1.448
0.3398
1.307
0.925
0.5984
0.5737
0.4497
0.191
1.597
2.629
0.2282
0.4715
1.133
0.1782
0.1605
4.913
0.5102
0.6342
1.876
1.3
21.45
0.1238
0.7471
0.5108
1.563
1.673
0.3922
0.5741
0.3083
0.8544
0.8509
6.379
0.1464
0.6396
23.09
5.343
0.2292
4.046
0.2067
7.051
0.4747
0.5164
0.2913
0.2946
1.231
4.156
0.6176
0.4201
0.2971
0.8529
0.2469
3.47
0.3529
3.946
0.06599
0.1792
0.7937
1.68
0.22
0.2445
0.3626
1.771
1.133
5.284
0.208
0.6582
0.09626
0.3148
0.1577
2.373
2.211
0.3096
1.56
2.186
0.07397
1.779
0.2467
0.3577
0.1534
0.4571
0.3322
0.1539
0.3301
1.041
0.1452
0.8837
0.2027
0.7446
0.2887
0.06446
0.284
1.928
2.855
0.3053
1.233
0.7917
0.6768
5.193
1.55
0.7349
0.3802
7.892
0.1485
0.8265
0.8764
0.3354
1.139
0.2114
1.528
3.138
3.468
1.143
0.685
0.2158
1.572
2.305
0.4253
0.1858
0.8828
0.593
0.1581
0.1496
0.7877
0.4411
0.59
0.6952
0.2804
0.8276
1.879
0.2231
0.6506
6.931
0.6228
0.2273
0.7416
0.3393
4.987
0.1955
0.4928
2.271
0.189
0.2345
0.7837
3.628
0.3819
0.07653
0.2784
19.06
0.7464
0.2947
1.179
0.8474
0.1781
0.6492
2.189
2.917
2.033
0.07449
21.02
4.779
0.6601
0.2752
4.85
0.9023
0.1873
0.1734
0.2567
0.484
0.6335
0.4359
0.4946
0.6852
0.7565
0.162
0.5623
1.416
0.8349
2.584
4.503
4.631
0.2666
0.5105
1.33
0.2108
0.1021
2.437
0.1139
0.9855
3.637
2.414
0.6688
0.09886
0.515
0.631
0.208
0.1046
1.271
1.82
0.8654
0.6716
4.535
3.403
3.075
0.7491
1.427
1.523
0.4565
4.711
0.3497
0.8487
5.812
0.2286
2.385
0.6646
1.877
1.263
0.2208
0.7565
0.93
0.3123
0.4957
1.813
0.3135
0.1911
2.727
6.616
2.648
3.084
0.9333
0.2554
0.6401
0.8365
0.5787
1.423
0.202
2.968
10.5
0.8793
0.3639
4.369
0.8854
0.9811
1.229
14.93
0.1653
0.2967
3.459
13.75
0.7821
0.1021
4.677
1.874
0.629
1.121
0.248
0.3443
4.535
0.4126
1.42
0.5146
1.134
2.267
0.2425
0.5783
0.1263
0.1685
1.535
0.6655
2.186
0.08314
2.703
0.4529
0.8472
0.8821
5.518
0.3214
0.05582
0.8966
0.6923
3.265
4.464
0.4745
0.1736
0.4949
13.6
0.1402
0.2121
0.359
5.081
0.5119
0.6604
0.4054
0.3188
0.5441
0.5325
9.55
0.3253
1.145
0.6191
0.2632
0.6935
0.7637
0.4163
1.207
2.143
0.567
0.2903
6.063
0.8455
1.367
0.184
0.1718
1.826
3.351
0.3993
10.99
0.1185
0.9813
5.401
0.4047
0.2838
1.202
0.2161
0.8408
0.3593
0.9287
0.6507
0.7457
0.2852
0.3063
0.7291
0.6218
1.484
0.6643
0.8351
0.7639
0.477
1.269
0.1525
0.4289
0.2027
0.1447
0.3334
0.5503
0.9483
0.1639
0.2238
0.09584
0.8501
1.459
0.545
0.4923
3.46
0.1656
3.921
0.2373
0.2065
0.4515
0.1922
4.197
0.1127
0.886
6.198
0.2862
0.1423
0.2573
0.2864
1.161
0.7325
4.131
1.701
0.5812
0.2558
0.3732
3.812
0.05018
0.1277
0.6672
0.441
3.251
0.7406
0.4727
1.042
0.2809
0.7423
0.5857
0.2067
0.6741
0.5195
3.248
1.147
2.783
0.1359
8.779
1.457
4.202
1.443
0.448
0.1273
0.9348
1.574
0.2953
0.3918
0.4936
0.1239
0.7884
0.3461
0.1058
0.1697
9.368
0.2744
9.32
4.784
0.7338
0.4839
0.5206
0.3729
0.3933
0.6899
0.3794
1.243
1.608
1.075
0.3601
0.3488
56.49
0.4075
0.3491
2.73
0.296
0.4368
0.8949
0.3156
3.412
0.1011
0.03649
1.45
1.752
0.1525
2.957
4.131
4.408
0.7993
4.98
0.3961
0.8101
0.3209
0.4383
0.2939
57.87
0.6009
0.117
0.3118
2.159
1.685
0.1363
5.541
9.768
2.839
4.481
0.1931
1.062
0.4116
0.5874
2.088
0.7097
0.2233
2.744
0.148
0.4285
0.1515
0.2351
0.3476
0.2143
0.4122
0.9582
0.4653
1.353
1.335
0.3222
0.33
0.4791
0.3728
0.3414
4.971
0.785
0.6257
0.2642
0.8732
0.3383
1.08
9.485
3.396
0.1101
0.7447
0.7072
3.559
0.7948
0.3102
4.137
0.1472
1.914
0.5018
2.188
1.701
0.3274
0.8137
0.367
0.671
0.8598
8.347
1.14
0.8927
0.2842
0.3633
1.406
1.121
0.08778
2.027
0.8216
0.2777
2.069
1.255
0.2806
5.413
0.5676
0.3481
0.1585
0.736
1.806
0.2872
1.503
0.4777
0.6324
0.5229
3.213
4.069
0.2109
0.3352
0.7934
0.6403
2.228
0.3178
1.322
7.64
0.1279
0.8587
0.2857
15.74
1.091
0.1076
1.063
3.611
0.3008
8.329
0.5818
0.474
2.568
0.6769
0.923
2.04
0.3374
1.368
3.142
1.14
0.671
0.3416
1.912
1.239
0.4938
0.177
0.7529
0.165
0.5195
0.1148
0.4976
2.137
0.1215
1.483
0.1391
4.297
0.6678
1.014
0.4681
2.928
0.1027
0.3988
4.203
1.059
0.5487
0.1201
1.08
0.134
0.08783
9.483
1.247
0.7031
0.3908
0.4697
0.5343
11.71
0.2651
0.864
0.1981
9.79
13.15
0.07898
0.172
1.121
2.986
0.1186
0.114
0.05735
1.629
0.3332
1.072
0.4195
1.711
1.831
0.422
0.8309
1.239
0.7006
0.2073
0.09829
0.8233
0.3826
0.192
0.1524
0.1554
1.142
1.317
6.793
0.4692
0.7809
0.1614
0.8824
0.3435
1.15
0.1287
5.634
1.365
0.2145
1.272
0.09727
2.043
0.938
2.267
0.4945
0.8195
1.427
0.1626
0.1856
0.4994
2.497
0.3004
1.366
1.653
0.3015
0.6679
1.395
0.5166
0.3994
4.498
0.1105
0.2672
0.1686
0.764
0.6276
5.383
2.245
0.2392
1.323
0.1694
0.3046
2.102
0.1226
0.5586
17.89
3.735
0.3419
0.08016
0.6077
0.2083
0.7536
0.3549
0.2827
1.346
5.155
0.168
4.472
0.2065
0.4525
0.2901
0.5913
0.5203
0.1475
0.226
3.02
0.4432
0.262
2.673
0.2249
0.1098
0.6688
0.6015
3.311
0.2471
0.5906
2.727
0.1469
2.826
0.3492
10.02
0.7063
0.9804
0.2847
0.5948
1.057
0.1449
1.194
0.2139
5.378
0.1667
0.6777
0.3986
0.3851
0.3794
0.7535
0.1533
0.3704
0.6411
0.3
1.85
0.2246
0.0348
0.2419
5.233
0.739
0.4987
0.4146
0.4285
0.9283
5.065
6.952
0.8135
0.5921
9.37
1.32
0.2528
13.18
0.1742
0.6685
0.6555
0.3263
0.167
4.041
0.2054
0.3389
41.75
0.9297
1.362
0.1441
0.3461
1.274
0.3382
0.1593
0.7887
0.04467
0.2134
0.5978
0.5218
0.151
0.2588
0.3152
0.1215
1.255
3.377
1.612
1.188
0.355
0.211
1.085
0.1855
0.2532
15.43
0.4496
4.025
0.197
2.608
1.727
0.2122
2.737
0.3091
2.173
0.2605
0.5284
1.14
0.6024
7.955
0.3287
0.2078
0.5376
0.8206
1.399
32.89
0.2507
1.038
0.0454
2.341
0.269
1.067
0.8775
0.7986
1.562
0.5242
0.5253
0.3606
0.2989
0.5412
1.044
1.626
0.4163
1.864
0.6583
0.803
2.915
0.3662
0.138
0.1126
0.1274
1.082
0.4404
1.422
1.919
0.4174
0.583
0.2354
2.096
0.3775
1.414
1.256
0.5873
0.3371
3.232
0.8181
0.1649
2.462
0.1483
2.276
0.1706
2.201
0.3953
0.213
0.1424
0.664
1.97
10.18
0.4242
0.2819
0.5213
1.093
1.326
1.675
0.5089
1.019
0.5694
3.681
0.5683
0.6634
0.9726
0.29
3.642
2.815
0.3839
0.2131
6.583
1.07
5.882
0.2487
2.485
0.78
1.021
0.5808
0.5633
1.366
0.5534
0.8547
0.6156
2.805
0.1065
0.7086
4.479
0.3689
0.7101
0.4175
0.163
0.397
2.335
1.643
4.082
0.07179
1.795
0.1183
3.681
0.1901
1.504
0.1212
0.6294
0.4518
14.65
0.2527
0.3788
5.99
2.806
1.625
0.6388
8.766
0.5814
0.6781
0.4524
1.296
2.368
3.306
0.145
0.5949
0.3025
1.307
0.1808
0.246
0.1389
0.8425
0.3896
11.73
1.613
0.4085
0.1506
0.4493
0.9373
1.951
0.593
1.395
0.1769
0.8202
0.3546
1.135
0.1514
0.284
2.132
0.284
0.3189
0.1332
3.246
0.2331
0.5719
0.1162
1.061
0.7454
0.03939
0.5875
0.1999
2.725
1.006
0.7338
0.779
0.06746
0.8217
0.3974
2.701
0.8465
1.971
1.818
0.1864
0.7182
0.1403
0.6072
0.4233
1.146
0.8183
0.2125
0.7192
0.2004
2.127
0.2522
0.3663
0.09087
0.06595
16.08
0.2775
0.3919
0.08459
0.5706
0.4563
0.2227
0.1378
1.025
0.1667
2.166
0.3369
0.247
0.4211
0.1749
2.51
0.7944
0.5355
0.3536
1.305
3.068
1.1
0.5314
0.8278
1.235
0.6718
0.08794
0.1222
0.516
0.3991
0.07411
0.5976
0.2258
3.068
3.787
1.299
0.7605
0.3046
1.31
0.4167
0.1895
0.3007
0.5368
0.309
4.577
0.1534
1.08
3.394
0.2658
1.339
2.068
0.4159
6.053
0.7988
0.412
0.6105
0.4725
0.135
0.7916
4.105
0.1879
2.815
0.07205
0.3971
0.9967
0.8386
0.6512
0.8704
0.1368
0.7917
0.2758
1.255
2.262
0.1511
0.4204
1.358
0.2173
2.826
0.515
0.2913
0.1636
0.4551
2.695
1.24
1.195
17.01
0.272
1.32
0.5229
0.3416
0.6689
0.298
0.9271
0.1334
2.323
0.916
0.341
6.156
0.4564
0.2731
2.38
0.3412
0.3973
0.6125
4.535
0.5856
0.2082
0.7842
0.1146
0.3279
1.79
1.507
7.246
0.4439
0.5036
0.1957
0.5167
0.9404
1.235
2.229
0.2217
7.153
0.934
0.589
0.1717
0.1441
2.527
1.82
0.4113
0.9381
1.603
0.3107
0.3077
0.6071
0.1949
1.992
0.1926
0.6283
0.957
1.065
0.2299
0.7298
0.5853
0.1104
6.39
1.112
0.6638
0.2024
0.2633
0.3633
0.4746
1.175
0.2228
1.531
26.91
0.1201
1.497
0.7619
3.143
0.3008
0.1688
0.3521
0.1262
2.107
0.3976
4.974
0.705
3.35
0.3166
1.575
0.1858
0.1265
0.05453
0.03411
0.2095
1.075
1.478
0.9362
0.2379
0.3263
3.743
1.378
1.276
1.744
0.6441
0.2183
0.6865
0.366
1.181
0.09597
3.979
0.5602
1.654
0.08318
0.5994
0.7326
1.302
0.2486
2.37
0.1345
0.5861
1.132
0.7625
1.319
4.897
0.226
4.3
1.296
0.1323
0.2611
1.351
0.6019
1.409
0.1521
0.2363
0.6094
1.755
0.03792
0.05189
0.3323
4.228
0.2136
3.893
0.2408
1.358
0.5179
0.845
0.2938
0.06053
0.1838
0.2443
7.892
0.8707
1.082
5.178
0.7455
3.501
0.5252
0.7933
1.041
3.904
3.705
0.1095
6.748
0.3482
0.3826
0.2575
0.1779
0.2488
0.2566
0.8278
6.878
1.348
0.1565
0.1641
1.639
0.9284
4.218
0.5381
0.6126
0.6388
0.1513
0.1809
0.1074
12.9
1.169
0.4409
0.2858
2.727
0.7169
0.09828
1.234
0.3768
6.888
0.3481
2.538
0.2665
0.4552
0.8174
0.2502
0.505
0.5323
0.1176
0.2369
0.6223
2.65
0.1336
0.3773
0.7308
0.3223
0.9902
0.3594
5.447
11.26
1.33
1.26
1.39
11.32
8.952
3.249
0.9903
2.159
8.342
0.3154
0.2013
2.651
1.788
1.478
0.5947
0.4918
0.3068
0.2705
0.2226
0.4118
21.08
0.2455
0.4526
0.2934
0.8253
0.07865
0.6346
1.346
0.3216
0.3002
0.2136
0.4885
0.5468
0.222
0.9338
0.3352
4.34
0.2777
0.3908
0.5881
6.783
1.184
0.7315
1.633
1.977
2.012
0.2068
0.571
1.152
0.1872
1.093
0.04255
0.4086
2.607
4.676
0.5797
0.2966
0.741
0.7359
0.3608
1.646
1.951
0.2913
1.315
1.155
6.973
1.798
7.105
0.4273
0.285
0.2572
0.6846
0.8844
2.034
0.1476
0.7942
0.2263
3.23
7.239
0.04522
0.2083
1.377
0.5619
8.627
1.22
0.2903
0.07461
0.1732
0.9412
1.1
0.1977
1.757
0.09591
0.8312
0.8325
12.09
5.583
0.1907
2.589
0.9786
0.2034
0.2169
0.6939
0.0882
0.1656
0.2152
0.4087
0.9058
1.063
1.556
0.4573
0.7257
0.1921
0.394
0.8713
0.4298
1.072
1.441
0.533
5.955
0.3186
0.4219
0.5907
0.2
5.97
1.342
0.2441
0.444
7.565
1.535
2.849
0.1482
0.2002
5.598
1.473
0.2527
0.3286
0.1028
1.55
0.5607
0.1313
3.294
0.2966
4.771
0.7836
0.237
0.2352
1.355
0.3493
2.781
0.5803
0.03858
1.185
5.92
0.1399
0.2273
0.9993
0.431
0.7468
0.5885
0.31
0.7233
1.252
31.35
0.6078
2.326
0.3612
0.3342
0.2022
3.76
1.177
0.1121
5.84
0.2122
0.2538
0.7241
1.072
0.1294
0.6609
0.1743
0.124
2.705
1.378
3.031