/*--------------------------------*- C++ -*----------------------------------*\
  =========                 |
  \\      /  F ield         | OpenFOAM: The Open Source CFD Toolbox
   \\    /   O peration     | Website:  https://openfoam.org
    \\  /    A nd           | Version:  8
     \\/     M anipulation  |
\*---------------------------------------------------------------------------*/
FoamFile
{
    version     2.0;
    format      ascii;
    class       volScalarField;
    location    "10";
    object      p;
}
// * * * * * * * * * * * * * * * * * * * * * * * * * * * * * * * * * * * * * //

dimensions      [0 2 -2 0 0 0 0];

internalField   nonuniform List<scalar> 
63564
(
-0.1371
-0.1742
-0.1768
-0.182
-0.1842
-0.5731
-0.1181
-0.1861
-0.08202
-0.1638
-0.06125
-0.1113
-0.1589
-0.3761
-0.1074
-0.1105
-0.5849
-0.6194
-0.03608
-0.4178
-0.1783
-0.4165
-0.1071
-0.1133
-0.1128
-0.05868
-0.4087
-0.1809
0.009453
-0.09056
-0.5077
-0.3652
-0.3702
-0.2079
0.0023
-0.5657
-0.1998
0.005273
0.00559
0.009171
-0.599
-0.08624
-0.6152
-0.2201
-0.1532
-0.4167
-0.06061
-0.09638
-0.2142
-0.5893
-0.2888
-0.3768
-0.4551
0.0004598
-0.258
-0.2071
-0.2146
-0.2585
-0.5981
-0.4155
-0.1749
-0.3949
-0.2451
-0.5421
-0.281
-0.4166
-0.2207
-0.1637
-0.2814
-0.1005
-0.3825
-0.1238
-0.4776
-0.4057
-0.5058
-0.4158
-0.4156
-0.09916
-0.1809
0.0118
-0.02186
-0.2799
-0.5652
-0.19
-0.1125
-0.4029
-0.1017
-0.5414
-0.09665
-0.1046
-0.206
-0.5096
-0.5245
-0.09334
-0.1632
-0.2936
-0.1833
-0.1782
-0.1912
-0.01468
-0.1743
-0.1015
-0.29
-0.1751
-0.1202
-0.3797
-0.507
0.006861
-0.121
-0.4182
-0.1375
-0.2453
-0.385
-0.08908
-0.1927
-0.3834
-0.28
-0.06881
-0.5013
-0.5231
-0.5743
-0.1277
-0.477
-0.1745
-0.5821
-0.1366
-0.3737
-0.4042
-0.3139
-0.2818
-0.5165
-0.5671
-0.244
-0.456
-0.1664
-0.5006
-0.0004098
-0.5082
-0.4161
-0.1669
-0.3278
-0.4146
0.01052
-0.0948
-0.1288
-0.46
0.002668
-0.2466
-0.1198
-0.4302
-0.2697
-0.009852
-0.47
-0.04208
-0.06357
-0.2053
-0.2067
-0.3418
-0.1241
-0.4982
-0.5092
-0.4119
-0.4511
-0.5584
-0.1369
-0.1132
-0.5087
-0.3988
-0.4036
-0.06099
-0.1573
0.002848
-0.1076
-0.005908
0.01312
-0.4812
-0.0004633
-0.2267
-0.1642
-0.2415
-0.2201
-0.06191
-0.1028
-0.2986
-0.3405
-0.1255
-0.00416
-0.03421
-0.008132
-0.4019
-0.09697
-0.2136
-0.1874
-0.4555
-0.3156
-0.4511
-0.1888
-0.1856
-0.3018
-0.2448
-0.5737
-0.2944
-0.1162
-0.1805
-0.5114
-0.4309
0.00923
-0.08636
0.000637
-0.0957
-0.3374
-0.4966
-0.1661
-0.5733
-0.1776
-0.4286
-0.5325
-0.3398
-0.5336
-0.4491
-0.3704
-0.2597
-0.31
-0.4319
-0.3158
-0.1551
-0.4836
-0.5203
-0.5094
-0.4748
0.01125
-0.5139
-0.1921
-0.2732
-0.131
-0.2939
-0.1659
-0.1758
-0.116
-0.3988
-0.5613
-0.1718
-0.2315
-0.3385
-0.2618
-0.4662
-0.09789
-0.1064
-0.1116
-0.3389
0.009858
-0.1328
-0.4484
-0.1056
-0.2901
-0.1695
-0.4389
0.01266
-0.006544
-0.3708
-0.2174
-0.2987
-0.494
-0.2105
-0.2945
-0.1005
-0.3162
-0.1397
-0.4122
-0.2097
-0.1864
-0.2443
-0.1421
-0.2818
-0.585
-0.352
-0.2138
-0.0911
-0.3144
-0.2127
-0.3157
-0.1218
-0.0021
-0.4745
-0.403
-0.1173
-0.5014
-0.4713
-0.05199
-0.1207
-0.5148
-0.4779
-0.3899
-0.1367
-0.5769
-0.4153
-0.1193
-0.334
-0.5043
-0.2931
-0.5755
-0.5741
-0.5043
-0.401
-0.4686
-0.4749
-0.1223
-0.2525
-0.5546
-0.5453
-0.2771
-0.5036
-0.1107
-0.1196
-0.177
-0.167
-0.3282
-0.5109
-0.5123
-0.5357
-0.1004
-0.4024
-0.169
-0.5192
-0.2472
-0.4332
0.004607
-0.3813
-0.4815
-0.1322
-0.1674
-0.1217
-0.02904
-0.1657
-0.5125
-0.241
-0.1491
-0.1053
-0.3676
-0.5058
-0.3164
-0.1492
-0.2473
-0.09231
-0.09914
-0.1462
-0.2079
-0.1231
-0.3021
-0.5135
-0.1324
-0.4759
-0.5387
-0.2129
-0.1061
-0.3542
-0.4143
-0.4965
-0.51
-0.2721
-0.2435
-0.2118
-0.1802
-0.01212
-0.3632
-0.1686
-0.2175
-0.2307
-0.2768
-0.4916
-0.1858
-0.4904
-0.1322
-0.4448
-0.1213
-0.1103
-0.3051
-0.5007
-0.1485
-0.1873
-0.1841
-0.2364
0.009679
-0.1343
-0.2527
-0.3345
-0.1026
-0.3966
-0.1991
-0.1219
-0.1771
-0.2104
-0.1605
-0.2502
-0.1813
-0.0185
0.003513
-0.5837
-0.146
-0.09914
-0.5221
-0.4887
-0.1162
-0.3656
0.0088
-0.1017
-0.3699
-0.3759
-0.1006
-0.0907
-0.1421
-0.6146
-0.555
-0.5682
-0.6289
-0.3954
-0.1516
-0.1186
-0.0155
-0.4747
-0.5197
-0.07336
-0.1503
-0.2
-0.4189
-0.1758
-0.07567
-0.392
-0.1759
-0.5114
-0.3927
-0.3077
-0.2057
-0.1682
-0.1676
-0.1736
-0.2782
-0.117
-0.5685
-0.3052
-0.1085
-0.2731
-0.5921
-0.004215
-0.1121
0.008251
-0.2118
-0.4158
-0.01192
-0.2989
-0.1417
-0.6029
-0.1868
-0.1199
-0.4338
-0.3287
-0.2797
-0.1541
-0.1556
-0.1666
-0.1515
-0.4717
-0.5681
-0.5566
-0.4988
-0.009543
-0.298
-0.1749
-0.1879
-0.1324
-0.1056
-0.2758
-0.2125
-0.159
-0.3313
-0.181
-0.4631
-0.2632
0.01344
-0.002391
-0.1247
-0.3572
-0.4928
0.01233
-0.1468
-0.1861
-0.2064
-0.1117
-0.179
-0.5036
-0.39
-0.5152
-0.3863
-0.1109
-0.09935
-0.2175
-0.2263
-0.08268
-0.2202
-0.1077
-0.2029
-0.1382
-0.5199
-0.5343
-0.1338
-0.2721
-0.4372
-0.1808
-0.2331
-0.03016
-0.2298
-0.2646
-0.5003
-0.5947
-0.1465
-0.4679
-0.1013
-0.3073
-0.511
-0.4413
-0.3021
-0.13
-0.1035
0.005068
-0.4772
-0.446
-0.5526
-0.1072
-0.3923
-0.05676
-0.4078
-0.3021
-0.3272
-0.3642
-0.1081
-0.1096
-0.2377
-0.0204
-0.2706
-0.4831
-0.1089
-0.5178
-0.1234
-0.2599
-0.3077
-0.2857
-0.1114
0.003272
-0.04428
-0.1568
-0.01403
-0.05555
-0.1699
-0.2248
-0.4876
-0.2684
-0.1924
-0.448
-0.04322
-0.1951
-0.4597
-0.1692
-0.5942
-0.4727
-0.1685
-0.1695
-0.1113
-0.1487
-0.1862
-0.2226
-0.5641
0.01743
-0.5035
-0.1067
-0.4526
-0.2806
-0.0005936
-0.1474
-0.1068
-0.1595
-0.1261
-0.4198
-0.1919
-0.6202
-0.2994
-0.1821
-0.2243
-0.2082
-0.515
-0.4312
-0.1848
0.01013
-0.1104
-0.4109
-0.536
-0.1839
-0.1666
-0.1554
-0.2023
-0.6076
-0.4631
-0.351
-0.6267
-0.1857
-0.1208
-0.08443
-0.1486
-0.2249
-0.3169
-0.2655
-0.5822
-0.1518
-0.2384
-0.03057
-0.2558
-0.4394
-0.2457
-0.24
0.004395
-0.4383
-0.2088
-0.371
-0.1494
-0.2715
-0.3031
-0.1054
-0.2005
-0.02972
-0.00484
-0.265
-0.1195
-0.2336
-0.5005
-0.1608
-0.5609
-0.2715
-0.5719
-0.1775
0.002221
-0.1725
-0.2536
-0.2185
-0.1372
-0.1387
-0.07745
-0.1946
-0.4939
-0.5725
-0.4084
0.01081
-0.6065
-0.3245
-0.2624
-0.4859
-0.4063
-0.1696
-0.1237
-0.2512
-0.1123
-0.5778
-0.1667
-0.1004
-0.2391
-0.3004
-0.3532
-0.1119
-0.263
-0.1792
-0.0794
-0.1981
-0.03257
-0.1009
-0.199
-0.5434
-0.5096
-0.519
-0.1471
-0.5947
-0.3502
-0.1452
-0.09769
-0.2204
-0.2157
-0.5009
-0.3362
-0.554
-0.3362
-0.2317
-0.1004
-0.1122
-0.4979
-0.1181
-0.5674
-0.09118
-0.1586
-0.3067
-0.2617
-0.185
-0.3772
-0.1416
-0.2373
-0.1748
-0.1532
-0.5643
-0.1185
-0.2729
-0.3817
-0.1251
-0.546
-0.04622
-0.3387
-0.4444
-0.008201
-0.6133
-0.1823
-0.1655
-0.5278
-0.003465
-0.2758
-0.2895
-0.3535
-0.4648
-0.2216
-0.2801
-0.1232
-0.1079
-0.2312
-0.1605
-0.1122
-0.02375
-0.49
-0.505
-0.3334
-0.1955
-0.4026
-0.04474
-0.2334
-0.5136
-0.1959
-0.2446
0.008577
-0.5099
-0.08546
-0.3563
-0.4863
-0.2103
-0.2245
-0.496
-0.1669
-0.3226
-0.5613
-0.5355
-0.08458
-0.2324
-0.1989
0.01223
-0.3586
-0.1249
-0.484
-0.1109
-0.1358
-0.4764
-0.5478
-0.09037
-0.3567
-0.3229
-0.1114
-0.1692
-0.4899
-0.2001
-0.1892
-0.4826
-0.2924
-0.3139
-0.6062
-0.111
-0.5178
-0.1152
-0.3756
-0.5079
-0.5737
-0.3383
-0.1931
-0.01136
-0.2528
-0.5974
-0.1871
-0.3403
-0.1147
-0.5243
-0.1393
-0.01231
-0.4839
-0.563
-0.144
-0.088
-0.1161
-0.4472
-0.1599
-0.122
-0.3342
-0.1232
-0.102
-0.2279
-0.2759
-0.2903
-0.2617
-0.174
-0.08653
-0.1671
-0.4533
-0.5388
-0.2864
-0.4182
-0.1148
-0.4069
-0.5949
-0.1805
-0.1741
-0.5037
-0.0947
-0.1185
-0.07083
-0.163
-0.1352
-0.15
-0.09975
-0.1468
0.007617
-0.1788
-0.4021
-0.5429
-0.1434
-0.4389
-0.2675
-0.1126
-0.01448
-0.2146
-0.1229
-0.1457
0.005841
-0.1458
0.006502
-0.07771
-0.07345
-0.1745
-0.263
-0.1082
-0.01277
-0.1334
-0.1571
-0.3161
-0.5049
-0.3499
-0.518
-0.1147
-0.1251
-0.1042
-0.4254
-0.4413
-0.334
-0.1108
-0.1975
-0.2194
-0.2416
-0.4651
-0.152
-0.2132
-0.1378
-0.1308
-0.3583
-0.2698
-0.5418
-0.1678
-0.08925
-0.1401
-0.1231
-0.4281
-0.1717
-0.2974
-0.1851
-0.151
-0.2643
-0.001288
-0.1175
-0.1217
-0.5809
-0.4853
-0.1355
0.01514
-0.2195
-0.5113
-0.4558
-0.03866
-0.2115
0.006781
-0.239
0.008849
-0.526
-0.3232
-0.2071
-0.2651
-0.4795
-0.1212
-0.3036
-0.121
-0.0873
-0.3848
-0.1258
-0.5156
0.007669
-0.4778
-0.3953
-0.5109
-0.1744
-0.2242
-0.1601
-0.01078
-0.5206
-0.3486
-0.1353
-0.3672
-0.4991
-0.4531
-0.2073
-0.2159
-0.377
-0.1139
-0.1393
-0.1346
-0.1994
-0.5429
-0.1478
-0.178
-0.2892
-0.2962
0.002657
-0.4437
0.003073
-0.6087
-0.1357
-0.009126
-0.5791
-0.2808
-0.2308
0.01956
-0.4434
-0.1078
-0.1148
-0.2498
-0.5872
-0.4657
-0.08625
-0.1361
-0.4563
-0.1609
-0.01228
-0.1804
-0.006961
-0.1519
-0.1661
-0.5183
-0.4924
-0.5539
-0.3715
-0.112
-0.1355
-0.2057
-0.2115
-0.2928
-0.1692
-0.3206
-0.4356
-0.5604
-0.2479
-0.2892
-0.1098
-0.1331
-0.3598
-0.2741
-0.1495
-0.2978
-0.1804
-0.1273
-0.2936
-0.3162
-0.1151
-0.2335
-0.2923
-0.3639
-0.1258
-0.3055
-0.1115
-0.4944
-0.5119
-0.0233
-0.2518
-0.4892
-0.3013
-0.2728
-0.3847
-0.201
-0.1168
-0.2718
-0.1894
-0.1467
-0.5275
-0.564
-0.4744
-0.1616
-0.4445
-0.3829
-0.4778
-0.1348
-0.2304
-0.1631
-0.4301
-0.2917
-0.5092
-0.6165
-0.2386
-0.4676
-0.5995
0.01406
-0.5476
-0.4926
-0.5106
-0.4323
0.01271
-0.1714
-0.002611
-0.2406
-0.2202
-0.1308
-0.09732
-0.1421
-0.3926
-0.5867
-0.3993
-0.1766
-0.106
-0.5433
-0.1109
-0.09931
-0.4773
0.009895
-0.1482
-0.2944
-0.1739
-0.5407
-0.5202
-0.2099
-0.3559
-0.1325
-0.1624
-0.1605
-0.2451
-0.006754
-0.2004
-0.1859
-0.3268
-0.1028
-0.2917
-0.3482
-0.5415
-0.2955
-0.1468
-0.09629
-0.232
-0.03593
-0.2994
-0.2411
0.005273
-0.2067
-0.1284
-0.1451
-0.5615
-0.601
-0.5489
-0.0398
-0.2652
-0.3786
-0.2438
-0.1086
-0.553
0.006415
-0.005427
-0.4801
-0.009455
-0.2276
-0.3374
-0.6006
-0.188
-0.3807
-0.2475
-0.09664
-0.001827
-0.4284
-0.1817
-0.1124
-0.5199
-0.2052
-0.4788
-0.1439
-0.211
-0.51
-0.5089
-0.2297
0.011
-0.1984
-0.5922
-0.03912
-0.2228
-0.4166
-0.0806
-0.04506
-0.1713
-0.5253
-0.2073
-0.141
-0.1646
-0.2913
-0.3825
-0.598
-0.2151
-0.1117
0.01315
-0.1335
-0.0921
-0.1931
-0.2154
-0.4973
-0.5249
-0.2077
-0.6017
-0.1751
-0.1665
-0.2661
-0.3757
-0.1347
-0.1453
-0.217
-0.1865
-0.5248
-0.2379
-0.2466
-0.4286
-0.1791
-0.1636
-0.03369
-0.09692
0.007006
-0.4672
-0.1503
-0.2961
-0.5009
-0.166
-0.1175
-0.1233
-0.3024
-0.1187
-0.2964
-0.2112
-0.2455
-0.2869
-0.4628
-0.351
-0.2055
-0.5412
-0.1086
-0.6029
-0.4896
-0.1568
-0.02979
-0.5639
-0.3758
-0.2349
-0.1392
0.02489
-0.2595
-0.3354
-0.3561
-0.2393
-0.267
-0.2332
-0.03404
-0.3519
-0.2045
-0.3544
-0.5563
-0.1332
-0.5532
-0.1352
-0.3176
-0.5168
-0.01139
-0.4614
-0.5598
-0.1057
-0.2978
-0.01024
-0.2566
-0.4798
-0.2753
-0.2578
-0.4777
-0.02724
-0.1642
-0.5163
-0.1814
-0.511
-0.2147
-0.3405
-0.6058
-0.5866
-0.5241
-0.2897
-0.3791
-0.5689
-0.009165
-0.1104
-0.1275
-0.1154
-0.4469
-0.0283
-0.1146
-0.6121
-0.335
-0.01524
-0.1914
-0.1446
-0.5272
-0.5127
-0.1164
-0.4711
-0.3083
-0.4625
-0.3284
0.0172
-0.2288
-0.1413
-0.197
-0.628
-0.1289
-0.3242
-0.1205
-0.2566
-0.203
-0.09408
-0.5678
-0.02365
-0.4694
-0.2578
-0.4985
-0.2527
-0.1333
-0.1135
-0.424
-0.1069
-0.2835
0.006716
-0.2106
-0.5162
-0.2668
-0.4744
-0.2122
-0.5598
-0.4639
-0.4855
-0.1416
-0.3291
-0.2516
-0.2129
-0.1961
-0.4933
-0.3428
-0.3193
-0.05018
-0.1881
-0.3398
-0.4993
-0.1309
-0.143
-0.3787
-0.1484
-0.6131
-0.1167
-0.1279
-0.3771
-0.08284
-0.1058
-0.4069
-0.1388
-0.1255
-0.1285
-0.2995
-0.01451
-0.2453
-0.3107
-0.4425
-0.1375
-0.253
-0.1121
-0.1468
-0.1274
-0.5059
-0.5286
-0.4871
-0.2712
-0.2028
-0.2348
-0.1172
-0.467
-0.2639
-0.1254
-0.1261
-0.5144
-0.1823
-0.1302
-0.4258
-0.1143
-0.5334
-0.2112
-0.3101
0.001065
-0.4845
-0.1374
-0.3335
-0.3781
-0.4614
-0.2844
-0.5396
-0.5314
-0.5273
-0.3827
-0.2047
-0.444
-0.5592
-0.1833
-0.02811
-0.005233
-0.1808
-0.2472
-0.01453
-0.5039
-0.3088
-0.1036
-0.3849
-0.1619
0.008547
-0.1098
-0.2708
-0.5255
-0.2412
-0.3281
-0.2305
-0.2024
-0.1668
-0.4899
-0.2533
-0.1799
0.005189
-0.1479
-0.3274
0.02439
-0.3564
-0.4117
-0.00631
-0.597
-0.2098
-0.4981
-0.5064
-0.007641
-0.5093
-0.168
-0.2735
-0.11
-0.1299
-0.1634
-0.1087
-0.1373
-0.4935
-0.4298
-0.4674
-0.5149
-0.1176
-0.1758
-0.1847
-0.5454
0.003908
-0.4817
-0.04254
-0.1119
-0.5557
-0.3549
-0.1514
0.001886
-0.2456
-0.2014
-0.5169
-0.3293
-0.5028
-0.2216
-0.5272
-0.1635
-0.1461
-0.2334
-0.4229
-0.6041
-0.2919
0.008071
-0.1359
-0.159
-0.5014
-0.006668
-0.1616
-0.09744
0.002759
-0.1092
-0.1477
-0.4527
-0.2373
-0.4543
-0.5487
-0.1796
-0.375
-0.38
-0.465
-0.5054
-0.2871
-0.1568
-0.3913
-0.2082
-0.1198
-0.1254
-0.232
-0.2127
-0.2842
-0.4649
-0.4645
-0.3859
-0.4077
-0.2919
-0.4676
-0.003348
-0.5723
-0.3819
-0.361
-0.2768
-0.1191
-0.1811
0.000229
-0.1803
-0.1067
-0.3835
-0.1642
-0.2431
-0.1636
-0.1861
-0.1099
-0.08894
-0.1581
-0.1545
-0.2868
0.01234
-0.2169
-0.2054
-0.4842
-0.1285
-0.156
-0.2913
-0.4362
-0.1741
-0.006373
-0.1712
-0.5198
-0.5618
0.01718
-0.3555
-0.4871
-0.2245
-0.1127
-0.1222
-0.2036
-0.3548
-0.3585
-0.498
-0.01699
0.007924
-0.2546
-0.2284
-0.392
-0.4995
-0.1439
-0.3217
-0.0004393
-0.07515
-0.1938
-0.3134
-0.4569
-0.002104
-0.5759
-0.5513
-0.1558
-0.1811
-0.2903
-0.1882
-0.4136
-0.228
-0.1758
-0.1737
-0.2197
-0.4931
-0.2901
-0.297
-0.1549
-0.5963
-0.3481
-0.1456
-0.2099
-0.5752
-0.2261
-0.3111
-0.2878
-0.3863
-0.1875
-0.1118
-0.5149
-0.5089
-0.5961
-0.002726
-0.1197
-0.1725
-0.1162
-0.5395
-0.1157
-0.008962
-0.263
-0.1471
-0.01001
-0.405
-0.2
-0.165
-0.4585
-0.1486
-0.1861
-0.1058
-0.1269
-0.1674
-0.2488
0.004932
-0.01286
-0.146
-0.4892
-0.1313
-0.171
-0.2969
0.008807
-0.09542
-0.2454
0.01491
-0.06864
-0.1666
-0.4087
-0.1433
-0.3317
-0.05133
-0.1108
-0.3688
-0.3133
-0.3477
-0.149
-0.4995
-0.2715
-0.2568
-0.221
-0.6132
-0.4824
-0.1621
-0.2722
-0.5121
-0.5867
-0.14
-0.2391
-0.5427
-0.2338
-0.4435
-0.4096
-0.01499
-0.1141
-0.3534
-0.2155
-0.1565
-0.1643
-0.2915
-0.5991
-0.5007
-0.074
-0.004492
-0.1551
-0.4841
-0.3881
-0.1784
-0.1494
0.01829
-0.09736
-0.5865
-0.1991
-0.3138
-0.2421
-0.1712
-0.003701
-0.255
-0.3914
-0.3293
-0.1241
-0.4976
-0.005774
-0.1661
-0.1057
-0.5058
-0.1408
-0.08897
-0.1796
-0.1542
-0.1108
-0.2341
-0.1374
-0.1017
-0.3871
-0.3205
-0.5368
-0.1211
-0.1593
-0.3694
-0.1342
-0.1921
-0.1082
-0.4871
-0.08221
-0.1071
-0.1064
-0.09877
-0.2342
-0.1196
-0.1843
-0.2095
-0.4637
-0.1215
-0.4281
-0.4869
-0.1837
-0.4321
-0.2225
-0.5524
-0.1889
-0.474
0.007028
-0.586
-0.2951
-0.2405
-0.509
-0.002569
-0.3897
-0.1288
0.0042
-0.179
-0.5978
-0.1281
-0.2434
-0.4477
-0.6048
-0.48
-0.1106
-0.2663
-0.2322
-0.5092
-0.1991
-0.3496
-0.1038
-0.02221
-0.4882
-0.106
-0.2316
-0.1337
-0.2729
-0.5015
-0.2122
-0.2232
-0.4673
-0.4855
-0.2613
-0.3908
-0.5921
-0.2134
-0.4667
-0.4398
-0.1154
-0.1535
-0.5752
-0.1584
-0.1766
-0.2178
-0.4159
-0.558
-0.2181
-0.1476
-0.5362
-0.2988
-0.1806
-0.1763
0.006332
-0.1857
-0.5994
-0.3703
-0.3995
-0.008504
-0.1387
-0.4785
-0.2526
-0.06189
-0.1822
-0.2121
-0.2233
-0.2376
-0.269
-0.1746
-0.1303
-0.5195
-0.3304
-0.1234
-0.1371
-0.3897
-0.5215
-0.5647
-0.5088
-0.1385
-0.1112
-0.2728
-0.4849
-0.1507
-0.1188
-0.2909
-0.3285
-0.1083
-0.2594
-0.2282
-0.1625
-0.4074
-0.05743
-0.3962
-0.5228
-0.01797
-0.01656
-0.2614
-0.04977
-0.09879
-0.2119
-0.242
-0.02468
-0.3146
-0.2322
-0.1521
-0.1947
-0.5339
-0.1817
-0.5355
0.01014
-0.1707
-0.1304
-0.1232
-0.5453
-0.5013
-0.309
-0.5489
-0.1713
-0.01818
-0.1668
-0.1655
-0.2899
-0.08631
-0.5199
-0.387
-0.08949
-0.1692
-0.302
-0.2209
-0.0229
-0.00732
-0.211
-0.5027
-0.05772
-0.1235
-0.1791
-0.4943
-0.567
-0.4456
-0.5191
-0.4237
-0.1971
-0.002125
-0.2469
-0.1166
-0.2128
-0.1041
-0.5289
-0.5365
-0.2073
-0.1306
-0.1817
-0.3315
-0.158
-0.1245
-0.264
-0.3926
-0.4184
-0.1082
-0.02181
-0.6155
-0.2869
-0.09612
0.01276
-0.1076
-0.2813
-0.1677
-0.02502
-0.3176
-0.09492
-0.4803
-0.1237
0.003783
-0.1299
-0.5704
-0.4072
0.002765
-0.1767
-0.5171
-0.1761
-0.4345
-0.2327
-0.07875
-0.1912
-0.1076
-0.2442
-0.138
-0.1768
-0.001421
-0.1089
-0.1385
-0.1802
-0.272
-0.09928
-0.3464
-0.1294
-0.1107
-0.2337
-0.3734
-0.1503
-0.1264
-0.2382
-0.5138
-0.146
-0.5675
-0.5386
-0.151
-0.1331
-0.5369
-0.1494
-0.1429
0.006786
-0.1689
-0.2539
-0.3323
-0.5153
-0.1455
-0.2312
-0.2206
-0.546
-0.1458
-0.2484
-0.1601
0.01473
-0.1681
-0.02442
-0.1189
-0.5699
-0.1618
-0.3096
-0.1455
-0.1571
-0.5268
-0.322
-0.1862
-0.2929
-0.4448
-0.411
-0.02416
-0.16
-0.1701
-0.1577
-0.2676
-0.2413
0.007985
-0.04225
-0.2474
-0.3384
-0.2464
-0.272
-0.12
-0.1697
-0.1125
-0.1124
-0.2614
-0.173
-0.2313
-0.1581
-0.3163
-0.03198
0.01097
0.00209
-0.1919
-0.5996
-0.3754
0.009721
-0.1403
-0.213
-0.1401
-0.3509
-0.2064
-0.56
-0.204
-0.243
-0.5252
-0.1436
-0.5683
-0.1381
-0.1483
-0.5761
-0.2219
-0.1138
-0.4739
-0.196
-0.5594
-0.005287
-0.1126
-0.2571
-0.2045
-0.1072
-0.2967
-0.5689
-0.493
-0.1169
-0.089
-0.06666
-0.2009
-0.5407
-0.5364
-0.2946
-0.2145
-0.3758
-0.3713
-0.1143
-0.1804
-0.1237
-0.09568
-0.2173
-0.1668
-0.1083
-0.4958
-0.2817
-0.2627
-0.1382
-0.3763
-0.2248
-0.5738
-0.05125
-0.1285
0.002699
-0.2732
-0.4894
-0.456
-0.5424
-0.1147
-0.5286
-0.2569
-0.1117
-0.196
-0.2625
-0.09942
-0.4708
-0.3641
-0.4455
-0.1268
-0.198
-0.5606
-0.3749
-0.1223
-0.4673
-0.5356
-0.4959
-0.2555
-0.3386
-0.5064
-0.4992
-0.1797
-0.5547
-0.5251
-0.5188
-0.2111
-0.405
-0.152
-0.2275
-0.2359
-0.5707
-0.2137
-0.5299
-0.1206
-0.02332
-0.4396
-0.1663
0.01354
-0.5532
-0.1484
-0.1879
0.003694
-0.3392
-0.4966
-0.2212
-0.1309
-0.4517
-0.5805
-0.001395
-0.1355
-0.5374
-0.1869
-0.3548
-0.5751
0.01176
-0.5238
-0.114
-0.248
-0.1235
-0.1537
-0.1361
-0.6073
-0.1086
-0.1962
-0.6023
-0.4656
-0.4046
-0.189
-0.2357
-0.119
-0.1309
-0.2025
0.05789
-0.4764
-0.1173
-0.5393
-0.3302
-0.1575
-0.4988
-0.2361
-0.3265
-0.1226
-0.2288
-0.5315
-0.4419
-0.177
-0.3526
-0.5281
-0.1188
-0.1054
-0.04037
-0.1271
0.008456
-0.008782
-0.3228
-0.4852
-0.5554
-0.1639
-0.3673
-0.572
-0.1878
-0.1741
-0.2626
-0.1943
-0.1533
-0.2894
-0.07656
-0.09927
-0.1073
-0.4425
-0.258
0.0156
-0.2091
-0.1737
-0.1017
0.004724
-0.02781
-0.16
-0.3011
-0.02197
-0.4843
-0.1247
-0.1053
-0.3985
-0.2532
-0.2401
-0.5861
-0.1491
-0.1091
-0.01749
-0.2517
-0.4751
-0.3371
-0.1594
-0.08794
-0.3642
-0.01961
-0.1736
-0.3495
-0.1692
-0.3195
-0.1821
-0.6158
-0.5059
-0.2645
-0.1846
-0.2665
-0.2757
-0.2333
0.01114
-0.2674
-0.1804
-0.3031
-0.1127
-0.2025
-0.009307
-0.1811
-0.3135
-0.1305
-0.4726
-0.1042
-0.5275
-0.2031
-0.5434
-0.2755
-0.1213
-0.2164
-0.5164
0.001896
-0.1742
-0.1093
-0.5844
-0.3895
-0.4133
-0.2194
-0.234
-0.3005
-0.5968
-0.02992
-0.1504
-0.1423
-0.3861
-0.01548
-0.1137
-0.4856
-0.1947
-0.2528
-0.5664
-0.5167
-0.3875
-0.4372
-0.2018
-0.2049
-0.5403
-0.4759
-0.1961
-0.2005
-0.5208
-0.2318
-0.2431
-0.1573
-0.498
-0.5479
-0.4758
-0.5457
-0.04333
-0.11
-0.1685
-0.1194
0.01389
-0.1242
-0.5164
-0.6049
-0.3462
0.01217
-0.1255
-0.2474
-0.1258
-0.4621
-0.3153
-0.1984
-0.2883
-0.5463
-0.2955
-0.1114
-0.4445
-0.2036
-0.213
-0.177
-0.4764
-0.1358
-0.08134
-0.1416
-0.04517
-0.145
-0.2568
-0.211
-0.1111
0.008556
-0.3541
-0.1813
-0.3078
-0.3595
-0.1218
-0.1176
-0.02548
-0.2518
-0.3705
-0.1017
-0.1816
-0.2282
-0.2504
-0.1175
-0.1433
-0.1198
-0.2022
-0.3903
-0.006556
-0.1733
-0.256
0.007728
-0.1643
-0.3397
-0.177
-0.5205
-0.1117
-0.1705
-0.2363
-0.5105
-0.1174
-0.4482
-0.3958
-0.0302
-0.1336
-0.2607
-0.4234
-0.4601
-0.5774
-0.1247
-0.02214
-0.1234
0.001953
-0.1343
-0.2447
-0.1192
-0.1242
-0.1157
0.002275
-0.5282
-0.5136
-0.122
-0.2671
0.01661
-0.1259
-0.05099
-0.1158
-0.416
-0.1846
-0.2656
-0.6037
-0.4991
-0.1199
-0.105
-0.1075
-0.1494
-0.2719
-0.1077
-0.1089
-0.5583
-0.4614
-0.1226
-0.4234
0.00353
-0.2366
-0.4719
-0.006688
-0.009658
0.02334
-0.2623
-0.5435
-0.1981
-0.151
-0.1114
-0.1848
-0.5679
-0.574
-0.524
-0.1081
-0.1909
-0.3611
-0.4894
-0.2522
-0.2124
-0.3679
-0.5337
-0.1448
-0.1982
-0.269
-0.2567
-0.07307
-0.2959
-0.1084
-0.4206
-0.5162
-0.2225
-0.3003
-0.2058
-0.2443
-0.1
-0.1567
-0.491
-0.1039
-0.09748
-0.3439
-0.5261
-0.5293
-0.2674
-0.1516
-0.1596
-0.3183
-0.1662
-5.509e-05
0.005751
-0.1567
-0.1605
-0.2682
-0.5422
-0.1498
-0.2251
-0.2458
-0.2328
-0.5096
-0.4693
-0.4404
-0.1194
-0.1172
-0.01981
-0.2308
-0.5752
-0.1125
-0.01374
-0.1672
-0.2237
-0.388
-0.4748
-0.3096
-0.08369
-0.1786
-0.1387
-0.1009
-0.5941
-0.3066
-0.5275
-0.1603
-0.4854
-0.2975
-0.5484
-0.1695
-0.2317
-0.307
-0.1645
-0.1889
-0.1082
0.006236
-0.2421
-0.5267
-0.04369
-0.1207
-0.1674
-0.1585
-0.5159
-0.15
-0.4854
-0.5583
-0.05012
-0.156
-0.5818
0.004868
-0.5101
-0.2429
-0.1559
-0.4135
-0.2595
-0.3099
-0.15
-0.5124
-0.138
-0.1858
-0.1791
-0.2052
-0.1234
-0.5094
-0.005708
-0.3032
-0.5662
-0.1211
-0.1082
-0.1104
-0.1764
-0.5701
-0.15
-0.5101
-0.1559
-0.2292
-0.4738
-0.3408
-0.08316
-0.005458
-0.1513
-0.5009
-0.2013
-0.5434
-0.5194
-0.1058
-0.2338
-0.1056
-0.1319
-0.1843
-0.1655
-0.4557
-0.3254
-0.1062
-0.2279
-0.4861
-0.02041
-0.4987
-0.02362
-0.525
-0.1092
-0.5179
-0.1718
-0.1839
-0.3169
-0.4669
-0.3415
-0.2195
-0.5495
-0.1234
-0.2475
-0.1578
-0.5373
-0.05914
-0.4076
-0.4976
-0.1495
-0.2766
-0.1049
-0.3765
-0.4033
-0.2585
-0.4638
-0.1583
-0.4319
-0.003913
-0.1825
-0.0641
0.001617
-0.142
-0.1605
-0.1609
-0.0006763
-0.3253
-0.2494
-0.3358
-0.1361
-0.5331
-0.3923
-0.4981
0.004927
-0.4171
-0.527
-0.3242
-0.1069
-0.1089
-0.2112
-0.2099
-0.1682
-0.1314
-0.224
-0.3739
-0.2781
-0.2058
-0.4791
-0.1728
-0.2038
-0.1418
-0.1119
-0.0251
-0.008536
-0.2014
-0.2738
-0.5226
0.01412
-0.2922
-0.197
-0.1378
-0.105
-0.1034
-0.1166
-0.5744
-0.1094
-0.05524
-0.2343
-0.1618
-0.5441
-0.3141
-0.5099
-0.4935
-0.35
-0.2405
-0.3398
-0.5293
-0.2395
-0.1812
-0.1285
-0.1242
-0.01908
-0.5118
-0.1216
-0.1598
-0.4509
-0.5169
-0.1051
-0.2455
-0.01169
-0.4059
0.01069
-0.2351
-0.4787
-0.06296
-0.3597
-0.2684
0.006526
-0.3369
-0.4645
-0.4754
-0.144
-0.1713
-0.1255
-0.2997
-0.1235
-0.6037
-0.003692
-0.3418
-0.5346
-0.5769
0.001788
-0.5487
-0.1855
-0.2042
-0.5173
-0.2525
-0.13
-0.1112
-0.1346
-0.5291
-0.01179
-0.5736
-0.03696
-0.02748
-0.136
-0.5751
-0.004071
-0.381
-0.4966
-0.3578
-0.09982
-0.4936
-0.2688
-0.123
-0.2754
-0.3773
-0.3003
-0.396
-0.2625
-0.01123
-0.3949
-0.2265
-0.3141
-0.3062
-0.1862
-0.5879
-0.02235
-0.1349
-0.3131
-0.4888
-0.3553
-0.5314
-0.1506
-0.1058
-0.2988
-0.3289
-0.1419
-0.274
-0.1582
-0.08972
-0.4145
-0.01229
-0.3429
-0.1593
-0.2614
-0.223
-0.3354
-0.06373
-0.04096
-0.2828
-0.4678
-0.2146
-0.1734
-0.1122
-0.4891
-0.1602
-0.2014
-0.1064
-0.4657
-0.1004
-0.4155
-0.2674
-0.1652
-0.2852
-0.336
-0.003391
-0.1627
-0.4087
-0.2884
-0.5083
0.00987
-0.5155
-0.04011
1.034e-05
-0.2824
0.007507
-0.1174
-0.1073
-0.08593
-0.2437
-0.4944
-0.5953
-0.1745
-0.6408
-0.1778
-0.5598
-0.4475
-0.1405
-0.6026
-0.1443
-0.2857
-0.1318
-0.1323
-0.5258
-0.1752
-0.09154
-0.2363
-0.5536
-0.3098
-0.4772
-0.197
-0.1054
-0.006504
-0.4021
-0.004409
-0.3649
-0.2438
-0.1992
-0.3997
-0.5522
-0.4694
-0.2902
-0.1254
-0.1522
-0.4017
-0.1329
-0.4903
-0.1067
-0.1465
0.01593
-0.4381
-0.1358
-0.1636
-0.1463
-0.3418
-0.3569
-0.3629
-0.4844
-0.08415
-0.4806
-0.3507
-0.2007
-0.4842
-0.5942
-0.1178
-0.5026
-0.3983
-0.2405
-0.1321
-0.1372
-0.1517
-0.214
-0.1218
-0.4725
-0.6283
-0.295
-0.5319
-0.111
-0.1141
-0.5453
-0.1465
-0.4117
-0.2768
-0.3306
-0.2087
-0.4258
-0.3676
-0.1747
-0.257
-0.5499
-0.1839
-0.2723
-0.1145
-0.0188
-0.4964
-0.1001
-0.3536
-0.4778
-0.4364
-0.521
-0.3972
-0.1884
-0.09761
-0.2924
0.00372
-0.5231
-0.5062
-0.474
-0.1203
-0.1916
-0.1353
-0.24
-0.1423
-0.167
-0.3114
-0.2304
0.01612
-0.1783
-0.2292
-0.0009654
-0.5237
-0.2011
-0.5107
-0.2372
-0.1276
-0.1448
-0.182
-0.106
-0.1095
0.01735
-0.5147
-0.3025
-0.1173
-0.1852
-0.02294
-0.4771
-0.2103
-0.1016
-0.3913
0.01411
-0.4157
-0.108
-0.5327
-0.1649
-0.4321
-0.01133
-0.5763
-0.4769
-0.4788
-0.2058
-0.2227
-0.2335
-0.1467
-0.1595
0.004622
-0.1362
-0.5925
-0.107
-0.4627
-0.5231
-0.2919
-0.2117
-0.4579
-0.3444
-0.05433
-0.5245
-0.2804
-0.1452
-0.1376
-0.1001
-0.001712
-0.3254
-0.1926
-0.1778
-0.6097
-0.1671
-0.1129
-0.1898
-0.08178
-0.142
-0.2048
-0.5697
-0.07751
-0.2029
-0.1652
-0.2303
-0.1565
-0.5634
-0.1172
-0.001158
-0.08824
0.005982
-0.5478
-0.1509
-0.5209
-0.1891
-0.2004
-0.0911
-0.4615
0.003297
-0.2636
-0.1182
-0.4959
-0.0006901
-0.327
-0.1516
-0.123
-0.135
-0.5655
-0.1599
-0.2339
-0.1705
-0.02243
-0.3054
-0.4929
-0.3392
-0.1283
-0.4972
-0.01642
-0.1323
-0.2896
-0.3443
-0.1281
-0.164
-0.415
-0.1815
-0.4248
-0.5437
-0.09759
-0.1735
-0.5893
-0.1652
-0.2243
-0.08001
-0.556
-0.1722
-0.0839
-0.2534
-0.4281
-0.1915
-0.09055
-0.5364
-0.0004643
-0.1185
-0.3626
-0.2283
0.01249
-0.04351
-0.5333
-0.328
-0.5827
0.009433
-0.4988
-0.1809
-0.1794
-0.3746
-0.1259
-0.5175
-0.2221
-0.1225
-0.1744
-0.1643
-0.5167
-0.5006
-0.2722
-0.104
-0.1058
-0.1217
-0.1489
-0.2143
-0.5015
-0.1254
-0.1063
-0.211
-0.009392
0.01766
-0.3499
-0.2654
-0.208
-0.1251
-0.4287
-0.2902
-0.519
-0.2489
-0.1166
-0.4109
-0.1188
-0.2734
-0.5276
-0.1555
-0.2125
-0.3074
-0.1838
-0.4146
-0.1286
-0.1107
-0.2098
-0.394
0.006277
-0.006449
-0.1065
-0.329
-0.1233
-0.1696
-0.1589
-0.04479
-0.1058
-0.2636
-0.4242
-0.3953
-0.4941
-0.1185
-0.06523
-0.2248
0.002356
-0.1827
-0.2436
-0.01167
-0.5089
-0.09055
-0.5901
-0.006943
-0.4913
-0.3312
-0.2942
-0.4782
-0.2582
-0.1378
-0.5371
-0.1532
-0.2464
-0.1771
-0.1065
-0.1682
-0.342
-0.5486
-0.1489
-0.5367
-0.5166
-0.2565
-0.1193
-0.1187
0.009335
-0.1073
-0.1097
-0.202
-0.1079
-0.2319
-0.3347
-0.1217
-0.01875
-0.2613
-0.4645
-0.008328
-0.2426
-0.6125
-0.1412
-0.00407
-0.2259
-0.5072
-0.1142
-0.4323
-0.3159
-0.1289
-0.511
-0.1577
-0.4579
-0.23
-0.4093
-0.6023
-0.398
-0.3758
-0.5346
-0.3095
-0.009724
-0.1814
-0.3601
-0.2154
-0.1204
-0.1651
-0.5905
-0.4607
0.01015
-0.1945
-0.1064
-0.1581
-0.1584
-0.3747
-0.5475
-0.1516
-0.2675
-0.2567
-0.541
-0.2215
-0.3349
-0.1153
-0.3104
-0.3458
-0.07915
-0.2381
-0.1039
-0.1344
-0.3725
-0.188
-0.5275
-0.5264
-0.1741
-0.5348
-0.07405
-0.2399
-0.00427
-0.2904
-0.325
-0.2686
-0.2183
-0.1477
-0.1829
-0.3053
-0.4888
-0.2361
-0.5077
-0.2255
-0.1429
-0.3111
-0.1469
-0.1093
-0.5401
-0.5786
-0.1893
-0.1318
-0.5025
-0.4882
-0.0285
-0.4948
-0.4934
-0.2747
-0.03477
-0.1505
-0.2407
-0.1057
-0.3539
-0.348
-0.2966
-0.5444
-0.1121
-0.2677
0.01323
-0.1064
-0.1896
-0.5222
0.01232
-0.1598
-0.2231
-0.00584
-0.2421
-0.1441
-0.1356
-0.4869
-0.443
-0.3605
-0.2456
-0.228
-0.4699
-0.1478
-0.3711
-0.1226
-0.603
-0.476
-0.3161
-0.4799
-0.4086
-0.5501
-0.2827
-0.3882
-0.1233
-0.1823
-0.2838
-0.4579
-0.5925
-0.104
-0.09128
-0.2428
-0.6293
-0.01625
-0.1616
-0.5136
-0.2397
-0.1485
-0.4852
-0.5709
-0.1203
-0.555
-0.2392
-0.5816
-0.3478
-0.4352
-0.142
-0.3467
-0.0978
-0.1695
-0.09777
-0.2321
-0.4521
-0.05632
-0.1741
-0.2119
0.007431
-0.4941
-0.2604
-0.4735
-0.1311
-0.2535
-0.5089
-0.1332
-0.5996
-0.2727
-0.1173
-0.1201
-0.1579
-0.1502
-0.5313
-0.29
-0.3554
-0.5164
-0.1291
-0.3144
-0.1177
-0.12
-0.04684
-0.1231
0.02149
-0.4725
-0.5597
-0.4716
-0.4863
-0.02195
-0.5575
-0.2783
-0.4943
-0.1585
-0.5127
-0.4497
-0.348
-0.2645
-0.2948
-0.02851
-0.314
-0.5343
-0.4051
-0.1341
-0.138
-0.1481
-0.5017
-0.04439
-0.3303
-0.2403
-0.1152
-0.2218
-0.2096
-0.4017
-0.5868
-0.1173
-0.1135
-0.1036
-0.3154
-0.3641
-0.06262
-0.1334
-0.5387
-0.1522
-0.1204
0.00636
-0.1202
-0.2334
-0.1269
-0.5115
-0.4717
-0.06218
-0.5824
-0.2148
-0.1604
-0.1079
-0.585
-0.2291
-0.2266
-0.133
-0.5176
-0.1305
-0.1038
-0.2155
-0.1643
-0.569
-0.2013
-0.2276
-0.4541
-0.5327
0.001098
-0.3586
-0.2567
-0.1845
-0.1609
-0.1162
-0.09269
-0.5575
-0.1765
-0.5251
-0.1339
-0.4861
-0.2019
-0.1264
-0.2717
-0.1168
-0.5139
-0.115
-0.276
-0.1336
-0.409
-0.2006
-0.4311
-0.09718
-0.1358
-0.2337
-0.3161
-0.1271
-0.4564
-0.4679
-0.1712
0.01574
-0.3129
-0.1056
0.009264
-0.2853
-0.005389
-0.3283
-0.3209
-0.05092
-0.1096
-0.1434
-0.1366
-0.5453
-0.2873
-0.1735
-0.03258
-0.1536
-0.4751
-0.2599
0.0103
-0.005372
-0.2881
-0.3085
-0.01756
-0.222
-0.2393
-0.3901
-0.1616
-0.3347
-0.04679
-0.2141
-0.51
-0.1217
-0.1153
-0.4831
-0.5002
-0.3531
0.01792
-0.4915
-0.2604
-0.5319
-0.138
-0.5117
-0.2414
-0.2169
-0.4945
-0.1566
-0.1549
-0.3438
-0.1661
-0.1748
-0.472
-0.5176
-0.08281
-0.2008
-0.2664
-0.5115
-0.5254
0.01449
-0.4308
-0.2671
-0.1738
-0.01871
-0.234
-0.2549
-0.04372
-0.2596
-0.4062
-0.1029
-0.1149
-0.05996
-0.162
-0.3238
-0.1974
0.01188
-0.1156
-0.2055
0.0185
-0.5629
-0.2525
0.01311
-0.1215
-0.3216
-0.1333
-0.1854
-0.4816
0.01228
-0.53
-0.1864
-0.1298
-0.5148
-0.2648
-0.1017
-0.09853
-0.1322
-0.4443
-0.1574
-0.1478
-0.4998
-0.001086
-0.1718
-0.1105
-0.4168
-0.1088
-0.1596
-0.08845
-0.1822
-0.3638
-0.5273
-0.3257
-0.4185
0.01546
-0.2491
-0.001535
-0.3754
-0.2989
-0.1326
-0.164
-0.2087
-0.0375
-0.01352
-0.4977
-0.213
-0.3505
-0.405
-0.1847
-0.4242
-0.259
-0.4572
-0.421
-0.5301
-0.3474
-0.2067
-0.6151
-0.4177
-0.2648
-0.01154
-0.2302
-0.00331
-0.5024
-0.1504
-0.1386
-0.2965
-0.1026
-0.5519
-0.5411
-0.1983
-0.2713
-0.364
-0.3808
-0.2478
-0.01559
-0.1987
-0.1584
-0.357
-0.141
-0.178
-0.5645
-0.1292
-0.182
-0.2464
0.01114
-0.2764
-0.1854
-0.5903
-0.03127
-0.574
-0.5946
-0.1556
-0.3145
-0.2876
-0.003585
-0.1108
-0.4969
-0.224
-0.5735
-0.164
-0.1952
0.0137
-0.2028
-0.2673
-0.2007
-0.1855
-0.136
-0.4329
-0.1084
-0.3178
-0.2856
-0.2174
-0.1969
-0.2485
-0.3737
-0.008791
-0.3971
-0.4095
-0.1761
-0.05116
-0.1874
-0.1095
-0.6267
-0.333
-0.2272
-0.4975
-0.4761
-0.5969
-0.3648
-0.3222
-0.07132
-0.02767
-0.525
-0.4559
-0.5762
-0.558
-0.3396
-0.5046
0.006035
-0.4914
-0.1376
-0.1123
-0.5215
-0.1042
-0.1833
-0.1525
-0.4902
-0.5271
-0.1266
-0.5613
-0.1087
-0.1534
-0.5557
-0.184
-0.1368
-0.592
-0.1313
-0.3771
-0.1998
-0.4968
-0.1943
-0.3537
-0.3331
-0.4528
-0.4004
-0.04246
-0.008154
-0.1757
-0.2041
-0.1694
-0.5047
-0.4845
-0.1191
-0.3475
-0.5227
-0.1145
-0.1421
-0.5079
-0.1786
-0.5794
-0.5134
-0.205
-0.1053
-0.1717
-0.1644
-0.5943
-0.1193
-0.005776
-0.5805
-0.4913
-0.2479
-0.5231
-0.1276
-0.1724
-0.2839
-0.457
-0.4905
-0.1727
-0.162
-0.1121
-0.448
-0.1437
-0.1854
-0.2602
-0.02039
-0.1354
-0.1045
-0.1751
-0.121
-0.476
-0.2134
-0.5583
-0.4327
-0.1074
-0.1797
-0.576
-0.09451
-0.3867
-0.5964
-0.2795
-0.427
-0.2793
-0.5291
-0.1488
-0.1919
-0.603
-0.1658
-0.1351
-0.1096
-0.4438
-0.4382
-0.04165
-0.2386
-0.3552
-0.1665
-0.5806
-0.572
-0.08943
-0.1258
-0.1513
-0.5843
-0.008045
-0.2982
-0.1349
-0.162
-0.3905
0.007042
-0.3615
-0.5482
-0.1856
-0.1707
-0.1462
-0.08004
-0.482
-0.311
-0.133
-0.1219
-0.4238
-0.3168
-0.02257
-0.1678
-0.5302
-0.5479
-0.3725
-0.1908
-0.5012
-0.1739
-0.4554
-0.2682
-0.3191
-0.1795
-0.146
-0.5152
-0.2025
-0.5447
-0.1623
-0.1213
-0.5178
-0.4226
-0.1625
-0.5045
-0.02063
-0.2147
-0.331
-0.01938
0.005684
-0.3732
0.007389
-0.5563
-0.1703
-0.4072
-0.164
-0.4479
-0.1409
-0.3523
-0.1832