/*--------------------------------*- C++ -*----------------------------------*\
  =========                 |
  \\      /  F ield         | OpenFOAM: The Open Source CFD Toolbox
   \\    /   O peration     | Website:  https://openfoam.org
    \\  /    A nd           | Version:  8
     \\/     M anipulation  |
\*---------------------------------------------------------------------------*/
FoamFile
{
    version     2.0;
    format      ascii;
    class       volVectorField;
    location    "10";
    object      U;
}
// * * * * * * * * * * * * * * * * * * * * * * * * * * * * * * * * * * * * * //

dimensions      [0 1 -1 0 0 0 0];

internalField   nonuniform List<vector> 
63564
(
(0.08318 -0.00234 2.094e-22)
(-0.002488 -0.01177 -1.62e-22)
(0.001233 0.006059 1.56e-22)
(0.001899 0.008684 0)
(0.001835 0.008596 0)
(0.6596 0.02721 3.11e-21)
(0.03849 -0.01473 4.051e-23)
(0.002474 0.009369 0)
(0.7332 -0.05234 6.836e-23)
(-0.00532 -0.02168 2.136e-22)
(0.7361 -0.06833 0)
(0.6299 -0.1378 -8.046e-22)
(0.8347 0.0008761 1.465e-22)
(0.9077 -0.2153 0)
(0.2744 -0.09891 1.277e-22)
(0.2728 -0.09892 3.765e-22)
(1.157 -0.0115 7.945e-23)
(1.154 0.01652 -5.792e-21)
(1.104 -0.07466 2.435e-23)
(0.8605 -0.2119 -1.134e-21)
(0.5699 -0.1866 -8.074e-22)
(1.033 -0.1605 6.206e-22)
(1.085 -0.04526 1.066e-22)
(0.6295 -0.1364 -2.749e-22)
(0.07879 -0.02576 -4.176e-22)
(0.738 -0.06398 0)
(0.8675 -0.2114 1.098e-21)
(0.6032 -0.1871 -3.259e-22)
(1.111 -0.09223 -1.326e-23)
(0.787 -0.05679 8.137e-23)
(1.126 -0.1348 -3.194e-22)
(1.085 -0.05792 -6.866e-24)
(1.086 -0.05456 8.718e-22)
(0.7068 -0.1918 0)
(1.123 -0.08787 3.355e-24)
(1.162 -0.1115 3.398e-21)
(1.056 0.02277 9.826e-22)
(1.122 -0.09005 0)
(1.122 -0.08997 0)
(1.105 -0.09222 1.642e-23)
(1.182 -0.00289 -2.253e-21)
(0.5643 -0.09918 3.426e-22)
(1.187 0.01372 4.986e-21)
(0.6518 -0.2035 3.907e-22)
(0.8766 -0.004914 -3.284e-22)
(0.9054 -0.2129 2.385e-21)
(1.075 -0.06917 -7.178e-23)
(0.502 -0.1262 0)
(0.6467 -0.2013 -7.339e-22)
(1.242 0.1008 6.811e-22)
(0.9474 -0.1518 -2.275e-21)
(0.9086 -0.215 -4.052e-22)
(0.9959 -0.2 1.776e-21)
(1.082 -0.08455 3.468e-24)
(0.7278 -0.2128 6.033e-22)
(1.055 0.02694 0)
(0.6475 -0.2011 6.793e-22)
(0.7262 -0.213 0)
(1.23 0.1086 6.187e-22)
(0.9508 -0.2102 7.437e-22)
(0.003406 0.02176 1.187e-22)
(0.8698 -0.2177 1.181e-21)
(0.744 -0.2061 0)
(1.178 -0.1049 -2.753e-22)
(0.7404 -0.2177 1.733e-21)
(0.9337 -0.2134 0)
(0.6519 -0.2031 -1.921e-22)
(-0.00822 -0.03114 -7.955e-22)
(0.7415 -0.2177 -1.822e-21)
(0.9497 -0.07215 -1.619e-21)
(0.9267 -0.2098 -2.06e-21)
(0.9882 -0.06787 -3.711e-21)
(1.079 -0.1563 0)
(0.985 -0.191 -1.051e-21)
(1.126 -0.1345 4.737e-22)
(0.933 -0.2134 -8.223e-23)
(1.041 -0.1528 0)
(0.5047 -0.1264 0)
(0.6034 -0.1868 -8.279e-25)
(1.082 -0.09098 7.889e-23)
(1.108 -0.07838 5.801e-23)
(0.7393 -0.2175 0)
(1.165 -0.1117 -6.932e-22)
(0.5846 -0.1912 -9.287e-22)
(0.3783 -0.1316 1.5e-22)
(0.9837 -0.1915 0)
(0.423 -0.1288 4.981e-24)
(1.177 -0.1057 -2.674e-22)
(0.4057 -0.1176 3.835e-23)
(0.4229 -0.1282 -5.098e-24)
(0.7079 -0.1913 0)
(1.111 -0.1485 1.239e-22)
(1.123 -0.1462 -1.139e-22)
(0.9536 -0.07068 0)
(-0.005095 -0.03506 7.421e-22)
(0.8152 -0.2118 -2.307e-21)
(0.4767 0.01788 2.448e-24)
(0.5716 -0.1866 2.671e-25)
(0.003718 0.01481 8.26e-22)
(1.124 -0.07963 3.46e-24)
(0.9001 -0.1233 1.761e-21)
(0.4789 -0.1284 -1.208e-22)
(0.7425 -0.2189 0)
(0.6935 -0.01837 4.648e-23)
(0.3852 -0.1357 -8.605e-23)
(0.8874 -0.2202 0)
(1.131 -0.1289 0)
(1.073 -0.08842 -1.819e-23)
(0.3974 -0.1394 -8.295e-23)
(1.034 -0.1589 0)
(0.4549 -0.1576 -1.501e-22)
(0.7228 -0.2084 4.24e-22)
(0.9159 -0.2146 1.227e-21)
(0.5707 -0.1008 0)
(0.04378 -0.1062 -2.394e-22)
(0.9155 -0.2145 -2.792e-22)
(0.7396 -0.2175 -1.019e-21)
(0.1987 -0.01608 3.076e-22)
(1.1 -0.1517 -4.148e-23)
(1.123 -0.1459 0)
(1.199 -0.08521 9.109e-22)
(0.4961 -0.1566 -1.685e-22)
(1.114 -0.1223 0)
(0.003783 0.02133 -2.319e-22)
(1.153 -0.02066 0)
(0.3029 -0.08955 -7.886e-22)
(1.233 0.2028 0)
(0.9641 -0.2022 0)
(0.8493 -0.212 6.111e-24)
(0.9502 -0.1497 6.569e-23)
(1.159 -0.1034 -1.436e-21)
(1.182 -0.09829 6.152e-22)
(0.6616 -0.2079 8.615e-22)
(1.13 -0.08516 -7.05e-22)
(0.5972 -0.1817 0)
(1.1 -0.1524 0)
(1.126 -0.08496 0)
(1.111 -0.148 0)
(0.9504 -0.2102 -7.381e-22)
(-0.01762 -0.03935 5.887e-22)
(0.8057 -0.2226 -5.126e-22)
(1.04 -0.1517 -1.591e-22)
(1.101 -0.09317 0)
(0.2807 -0.1103 -9.794e-23)
(0.4965 -0.157 3.267e-22)
(1.128 -0.08406 0)
(1.064 -0.08316 -1.98e-23)
(0.8211 -0.1903 4.725e-24)
(0.279 -0.1452 -8.167e-23)
(1.043 -0.1618 3.264e-22)
(0.9845 -0.1263 -2.573e-22)
(1.098 -0.08192 5.672e-24)
(1.082 -0.1455 0)
(0.4129 -0.02457 -2.086e-22)
(1.111 -0.02325 -4.687e-22)
(0.6848 -0.1966 5.041e-22)
(0.6837 -0.1964 -2.448e-22)
(0.8232 -0.223 1.566e-25)
(0.9885 -0.06618 4.953e-21)
(1.119 -0.1358 2.761e-22)
(1.112 -0.147 0)
(0.9093 -0.2177 -1.574e-21)
(0.9993 -0.1987 -6.379e-25)
(1.202 -0.08426 0)
(0.693 -0.158 5.854e-22)
(0.4408 -0.1404 9.73e-23)
(1.112 -0.1474 0)
(0.8934 -0.2178 -2.45e-21)
(0.9629 -0.2029 6.088e-22)
(1.106 -0.02051 2.971e-22)
(0.5929 -0.1753 1.757e-22)
(1.124 -0.0879 0)
(0.7744 -0.1253 7.948e-22)
(1.11 -0.08417 0)
(1.113 -0.09503 1.402e-23)
(1 -0.1911 3.571e-21)
(1.109 -0.08642 0)
(1.005 -0.08913 -1.311e-22)
(0.2654 -0.1961 -6.348e-23)
(0.7035 -0.2081 0)
(0.8403 -0.1682 -1.15e-21)
(0.9222 -0.06668 1.679e-23)
(1.089 -0.04598 -1.28e-22)
(0.8174 -0.2127 2.163e-22)
(0.9384 -0.1828 0)
(0.4208 -0.1462 2.219e-22)
(1.093 -0.08303 1.136e-23)
(1.107 -0.07451 4.395e-23)
(1.047 -0.07948 -2.849e-23)
(0.947 -0.2085 0)
(0.4085 -0.1178 0)
(0.6513 -0.2011 0)
(0.6194 -0.1892 0)
(0.9971 -0.1996 -1.322e-21)
(0.8059 -0.2208 6.562e-23)
(1.086 -0.1293 1.822e-21)
(0.5851 -0.1911 6.216e-22)
(0.5004 -0.1712 4.003e-21)
(0.7558 -0.2203 0)
(0.7222 -0.2087 0)
(1.2 -0.08542 0)
(0.7473 -0.2193 0)
(0.4379 -0.1406 0)
(0.866 -0.1341 -3.055e-21)
(1.211 -0.03872 2.384e-23)
(0.9392 -0.2116 -1.361e-21)
(1.113 -0.09246 0)
(0.9445 -0.0739 5.961e-22)
(1.085 -0.08494 -1.874e-24)
(0.4788 -0.1271 -1.15e-22)
(0.8458 -0.2195 0)
(1.027 -0.1848 3.033e-21)
(0.5561 -0.1812 -3.717e-22)
(1.212 -0.07255 1.604e-21)
(0.5808 -0.1869 0)
(1.08 -0.1258 2.881e-21)
(1.17 -0.1046 8.205e-22)
(0.9138 -0.1951 0)
(1.17 -0.1054 0)
(1.025 -0.1862 9.575e-22)
(0.8445 -0.2208 1.735e-21)
(0.74 -0.2124 0)
(0.9753 -0.1438 0)
(1.042 -0.1611 0)
(0.9776 -0.1415 0)
(0.493 -0.1704 -5.552e-22)
(1.116 -0.1309 0)
(1.092 -0.1626 3.612e-22)
(1.21 -0.03825 -5.038e-22)
(1.107 -0.1313 -1.338e-22)
(1.089 -0.09176 -8.717e-23)
(1.134 -0.1324 5.516e-22)
(0.004068 0.01934 -6.668e-22)
(0.7239 -0.2165 4.337e-22)
(0.4886 -0.1582 -2.17e-22)
(0.8176 -0.2111 -7.837e-22)
(-0.005591 -0.02636 0)
(-0.01644 -0.07698 2.715e-22)
(0.2019 -0.06817 1.206e-22)
(0.8938 -0.218 7.737e-23)
(1.276 0.0273 0)
(0.6208 -0.1803 4.578e-22)
(0.6605 -0.2062 1.569e-22)
(0.8456 -0.2197 0)
(0.7409 -0.2125 0)
(0.8988 -0.1721 -4.61e-22)
(0.4565 -0.1162 0)
(0.2452 -0.08769 -5.55e-22)
(0.3807 -0.1319 0)
(0.9148 -0.1941 0)
(1.079 -0.08803 0)
(0.4432 -0.1543 1.114e-22)
(1.024 -0.1868 5.963e-22)
(0.3462 -0.1226 -4.474e-23)
(0.8706 -0.194 0)
(0.5321 -0.1799 0)
(1.078 -0.1313 3.044e-21)
(1.103 -0.09364 0)
(1.111 -0.0841 -3.082e-24)
(0.8417 -0.2206 -1.91e-21)
(0.6071 -0.198 1.021e-22)
(0.8177 -0.2121 0)
(1.164 -0.07006 -2.315e-21)
(0.6289 -0.2002 2.799e-22)
(0.7489 -0.2193 0)
(1.095 -0.04824 5.938e-23)
(0.793 -0.2217 0)
(0.5217 -0.165 0)
(0.9075 -0.218 2.784e-21)
(0.6423 -0.1996 9.416e-22)
(0.5488 -0.1838 2.712e-22)
(0.593 -0.1943 -2.826e-21)
(0.4643 -0.1609 -1.294e-22)
(0.7648 -0.2163 3.985e-22)
(1.174 -0.02232 0)
(0.831 -0.2233 0)
(0.6528 -0.201 0)
(0.4134 -0.1094 6.152e-23)
(0.9094 -0.1867 -2.511e-21)
(0.6104 -0.1985 1.163e-21)
(0.8503 -0.212 -8.041e-24)
(0.3855 -0.136 -1.693e-22)
(1.117 -0.08532 -2.951e-24)
(1.094 -0.1405 0)
(0.8861 -0.2173 1.951e-21)
(0.2259 -0.1342 1.056e-24)
(1.076 -0.1693 2.792e-22)
(1.078 -0.1547 -8.544e-22)
(1.13 -0.05453 0)
(0.4521 -0.1477 -1.572e-22)
(1.155 -0.1132 0)
(1.078 -0.156 2.467e-23)
(0.9115 -0.2165 0)
(0.4569 -0.1579 8.025e-25)
(1.304 0.1656 1.404e-21)
(0.9109 -0.2139 2.149e-21)
(0.5612 -0.1491 0)
(0.8402 -0.2194 0)
(1.112 -0.1468 -2.114e-22)
(0.7386 -0.2186 5.158e-22)
(1.178 -0.09794 -1.879e-21)
(1.224 -0.06241 7.626e-25)
(1.105 -0.1491 0)
(1.054 -0.13 -4.359e-22)
(1.082 -0.1446 0)
(1.107 -0.1315 5.743e-23)
(0.3642 -0.1287 -4.587e-22)
(0.691 -0.212 -9.559e-22)
(1.168 -0.1145 -1.44e-22)
(1.125 -0.1359 0)
(0.7086 -0.2154 -1.109e-24)
(1.106 -0.1486 -3.455e-22)
(0.0788 -0.02745 0)
(0.3989 -0.1395 0)
(0.5819 -0.1869 -8.335e-23)
(0.5561 -0.1816 3.411e-22)
(0.8055 -0.2224 0)
(1.088 -0.1645 4.16e-22)
(1.075 -0.1692 7.393e-22)
(1.163 -0.1165 -5.622e-22)
(0.3597 -0.124 0)
(0.9467 -0.208 -2.473e-24)
(-0.03592 -0.05503 9.469e-23)
(1.11 -0.1534 4.963e-23)
(0.8221 -0.1909 -3.093e-21)
(1.141 -0.02587 -1.982e-21)
(1.08 -0.08848 1.844e-23)
(1.241 0.2316 1.498e-22)
(1.004 -0.1919 -2.452e-21)
(0.5891 -0.164 6.2e-22)
(0.9041 -0.1211 0)
(0.7799 -0.1249 0)
(1.092 -0.07652 7.637e-23)
(-0.01182 -0.04369 -1.761e-22)
(1.159 -0.1024 8.831e-22)
(0.7046 -0.2079 0)
(0.4381 -0.1524 -6.601e-22)
(0.6819 -0.1227 -5.477e-22)
(0.9348 -0.1986 1.379e-24)
(1.111 -0.147 0)
(0.8048 -0.2209 -9.842e-22)
(0.6438 -0.1634 9.234e-22)
(0.7445 -0.2057 5.777e-22)
(0.1088 -0.004358 -7.947e-23)
(0.3858 -0.1202 -5.476e-23)
(0.6967 -0.1577 6.377e-22)
(0.6423 -0.1992 2.871e-22)
(0.3627 -0.1289 6.46e-22)
(0.7566 -0.2203 6.818e-25)
(1.074 -0.1697 0)
(0.4772 -0.1581 -5.961e-23)
(1.013 -0.1928 2.64e-21)
(1.151 -0.1277 2.064e-22)
(0.6614 -0.2006 4.14e-22)
(0.3584 -0.1245 0)
(0.8141 -0.222 0)
(0.9719 -0.2011 -7.514e-22)
(1.119 -0.1352 1.237e-22)
(1.089 -0.164 -8.098e-22)
(0.7237 -0.2163 3.929e-22)
(0.6642 -0.2081 7.962e-22)
(0.6603 -0.2005 -5.274e-22)
(0.6574 -0.1826 0)
(1.038 -0.07822 0)
(1.08 -0.06757 0)
(0.6213 -0.1797 0)
(0.6092 -0.1985 2.371e-22)
(0.6611 -0.2061 0)
(0.7081 -0.2155 -7.022e-26)
(1.111 -0.1339 5.036e-23)
(0.07157 -0.139 2.484e-22)
(1.111 -0.1333 -9.997e-23)
(0.4438 -0.1545 -5.178e-23)
(0.9993 -0.1975 -6.655e-22)
(0.4876 -0.1505 0)
(0.04844 -0.01948 3.742e-22)
(0.7738 -0.2208 4.449e-22)
(1.076 -0.169 0)
(0.467 -0.1628 0)
(0.5981 -0.1896 0)
(0.5627 -0.1873 3.025e-22)
(0.6618 -0.2074 -1.272e-22)
(1.107 -0.09246 -1.488e-23)
(0.6837 -0.1451 0)
(0.6839 -0.2113 9.955e-22)
(0.8407 -0.2191 0)
(0.423 -0.1308 8.279e-23)
(1.052 -0.1318 4.437e-22)
(0.6976 -0.1913 -8.294e-22)
(0.562 -0.1499 -2.919e-22)
(0.549 -0.184 0)
(0.6485 -0.2 0)
(0.8677 -0.03022 2.018e-23)
(0.701 -0.2112 0)
(0.5771 -0.1885 0)
(1.097 -0.08 1.061e-23)
(1.072 -0.08432 1.519e-23)
(1.192 0.005609 -1.323e-21)
(0.9014 -0.1149 0)
(0.4531 -0.1282 9.157e-23)
(1.107 -0.1547 -5.003e-22)
(1.136 -0.1089 0)
(1.069 -0.04409 1.288e-22)
(0.8324 -0.2211 9.167e-22)
(1.081 -0.08816 0)
(0.3447 -0.1279 7.49e-23)
(1.082 -0.06419 0)
(0.9935 -0.1661 3.569e-21)
(0.3598 -0.1244 0)
(0.8652 -0.08867 0)
(0.464 -0.1606 2.53e-22)
(0.9979 -0.0609 -7.509e-21)
(1.303 0.08909 0)
(1.329 0.1441 -1.311e-21)
(0.8314 0.05841 -2.961e-21)
(0.9019 -0.2188 1.746e-21)
(0.4743 -0.165 0)
(0.6879 -0.1448 -4.42e-22)
(0.9399 -0.07518 4.239e-23)
(1.069 -0.1644 4.853e-22)
(1.121 -0.1461 6.123e-22)
(0.6216 -0.07505 1.8e-21)
(0.7508 -0.1529 0)
(0.6105 -0.196 -1.356e-22)
(0.9108 -0.21 -2.283e-21)
(0.3227 -0.1268 4.45e-21)
(0.4098 -0.0905 -7.163e-22)
(0.9733 -0.1897 -1.554e-24)
(0.5414 -0.1823 0)
(1.135 -0.1314 -6.835e-22)
(0.8752 -0.2182 0)
(0.7834 -0.2213 0)
(0.7237 -0.1922 -7.134e-22)
(0.7887 -0.157 0)
(0.777 -0.02908 0)
(0.3235 -0.1244 0)
(0.7698 -0.215 -5.723e-22)
(0.3689 -0.1312 0)
(1.197 -0.091 0)
(1.15 0.1479 7.752e-22)
(0.2615 -0.09603 -8.245e-23)
(0.8859 -0.1785 1.042e-21)
(1.303 0.06667 -1.431e-21)
(1.125 -0.07331 0)
(0.3423 -0.1218 -2.837e-22)
(0.579 -0.03448 0)
(0.6217 -0.1997 -7.691e-22)
(0.9128 -0.2135 2.201e-21)
(0.9407 -0.0111 0)
(1.064 -0.02674 0)
(0.9838 -0.07356 2.15e-21)
(1.175 -0.07138 -2.508e-21)
(0.6153 -0.1907 0)
(0.1801 -0.1369 -1.344e-22)
(1.009 -0.1884 0)
(0.7978 -0.2224 9.135e-22)
(0.7596 -0.2159 -3.168e-22)
(0.4808 -0.1676 0)
(0.5116 -0.1731 -2.069e-22)
(0.518 -0.1773 0)
(0.5731 -0.1715 0)
(1.106 -0.1282 0)
(1.261 -0.008323 1.691e-22)
(1.18 -0.1037 6.394e-22)
(1.11 -0.1433 -3.192e-22)
(1.088 -0.08133 8.186e-24)
(0.7367 -0.2179 0)
(0.6156 -0.1824 0)
(0.5726 -0.1902 -1.739e-23)
(0.1882 -0.1492 -5.192e-23)
(0.2858 -0.1025 -1.846e-22)
(0.7561 -0.2159 0)
(0.6691 -0.2004 -4.118e-22)
(0.5468 -0.176 0)
(0.8407 -0.2196 0)
(0.5491 -0.1848 -3.727e-22)
(1.087 -0.1397 5.835e-22)
(0.6901 -0.212 1.035e-24)
(1.109 -0.07504 -2.348e-23)
(1.065 -0.0822 -3.524e-24)
(0.4591 -0.151 0)
(0.9778 -0.1691 0)
(1.027 -0.1846 -1.326e-21)
(1.126 -0.09395 -1.105e-23)
(0.6113 -0.1676 2.835e-22)
(0.5807 -0.1902 4.784e-22)
(0.5394 -0.2011 3.384e-22)
(0.3458 -0.1236 -4.804e-23)
(0.6585 -0.1821 4.851e-23)
(1.084 -0.1655 -9.623e-22)
(0.5113 -0.132 -3.986e-21)
(1.136 -0.1326 0)
(0.9118 -0.2158 -3.254e-21)
(0.2488 -0.09212 -1.734e-22)
(0.3336 -0.1252 -3.459e-23)
(0.6158 -0.1994 -1.102e-21)
(0.6273 -0.2018 -1.957e-21)
(0.4934 -0.09261 0)
(0.6258 -0.2014 -1.794e-22)
(0.3496 -0.1232 0)
(0.6206 -0.197 -7.199e-22)
(0.4792 -0.1613 -1.695e-22)
(1.093 -0.1626 6.321e-22)
(0.9259 -0.09874 6.18e-21)
(0.7348 -0.1427 0)
(0.697 -0.2122 -4.687e-23)
(1.015 -0.1861 0)
(0.5551 -0.186 0)
(0.6454 -0.2049 0)
(0.9952 -0.0726 -5.152e-23)
(0.6318 -0.2027 1.33e-21)
(0.4005 -0.128 -4.135e-21)
(1.075 -0.1699 -1.605e-21)
(1.276 0.0151 1.85e-21)
(0.7063 -0.15 -4.246e-22)
(0.9926 -0.199 -3.257e-21)
(0.3915 -0.1256 -6.689e-23)
(0.8211 -0.2155 4.578e-22)
(1.116 -0.1467 6.223e-23)
(0.9412 -0.2034 -3.041e-21)
(0.8456 -0.2057 0)
(0.4504 -0.1532 0)
(0.3421 -0.1286 -7.138e-23)
(1.126 -0.08766 0)
(1.009 -0.1925 0)
(0.9695 -0.2055 -2.322e-21)
(1.146 -0.1229 -2.096e-21)
(0.3938 -0.1311 -2.527e-23)
(0.9845 -0.1839 1.26e-21)
(0.4464 -0.0286 0)
(0.9105 -0.218 4.511e-22)
(0.7575 -0.2201 -8.268e-22)
(0.8314 -0.2196 1.909e-22)
(0.8437 -0.2222 0)
(0.363 -0.1258 -3.036e-23)
(0.304 -0.1094 4.382e-22)
(0.7212 -0.2067 6.677e-22)
(0.945 -0.07394 -9.378e-24)
(0.7306 -0.2155 0)
(1.036 -0.1861 -9.305e-22)
(0.3357 -0.1315 1.821e-23)
(0.9962 -0.1652 0)
(0.2299 -0.0801 0)
(0.6679 -0.2095 0)
(0.7453 -0.2176 0)
(0.8163 -0.207 -1.543e-21)
(0.693 -0.1265 0)
(1.064 -0.08263 0)
(0.4532 -0.03244 -3.029e-22)
(0.5385 -0.1758 -1.878e-22)
(1.108 -0.08175 -3.901e-23)
(0.3924 -0.04603 1.728e-22)
(0.5024 -0.1716 -5.524e-23)
(0.6469 -0.2046 0)
(1.139 -0.1073 1.404e-21)
(0.8777 -0.1804 0)
(0.3372 -0.1321 0)
(1.063 -0.1538 1.077e-21)
(0.9245 -0.0637 0)
(0.6299 -0.195 6.063e-23)
(0.5736 -0.1239 0)
(0.5196 -0.1778 -3.214e-22)
(1.327 0.1878 3.418e-22)
(1.113 -0.1219 1.609e-22)
(-0.01187 -0.002978 9.219e-23)
(0.5491 -0.1816 -1.097e-22)
(0.1036 -0.03506 -1.909e-22)
(0.7533 -0.1537 8.937e-22)
(0.5133 -0.1754 -2.32e-21)
(0.7013 -0.2027 -1.001e-21)
(1.108 -0.1131 -2.15e-21)
(1.081 -0.09283 0)
(1.061 -0.1748 2.454e-21)
(0.7775 -0.1079 0)
(1.131 -0.08471 0)
(0.7298 -0.2172 0)
(1.121 -0.0865 0)
(0.5832 -0.1645 0)
(0.3209 -0.1158 0)
(0.5752 -0.1773 1.809e-22)
(0.5312 -0.1524 0)
(1.131 -0.03714 8.807e-22)
(0.3436 -0.1295 4.118e-21)
(1.254 0.03968 0)
(0.7123 -0.2119 0)
(0.5681 -0.1875 -1.951e-22)
(0.6536 -0.2048 -2.646e-22)
(0.6882 -0.1965 0)
(1.119 -0.1458 1.601e-23)
(1.125 -0.05389 -4.134e-21)
(0.5377 -0.1802 -1.175e-21)
(1.079 -0.09101 0)
(0.3745 -0.1299 1.098e-22)
(0.9457 -0.211 -2.496e-22)
(1.2 -0.07344 1.256e-21)
(0.7364 -0.1739 6.537e-24)
(0.5162 -0.1768 -3.259e-23)
(0.4912 -0.17 0)
(0.6101 -0.1968 -3.463e-22)
(1.334 0.2017 1.304e-22)
(1.005 -0.1974 -1.702e-21)
(0.8836 -0.2148 -1.153e-21)
(0.7589 0.005365 -4.269e-21)
(0.5923 -0.1905 4.136e-22)
(0.4233 -0.145 0)
(0.4514 -0.1098 6.876e-23)
(0.6502 -0.1644 0)
(1.004 -0.08922 -7.86e-22)
(0.8028 -0.2212 -1.583e-21)
(0.8353 -0.1953 0)
(1.252 -0.0267 1.063e-21)
(0.5103 -0.1714 0)
(0.6579 -0.2074 -8.905e-22)
(1.102 -0.07608 -1.137e-22)
(0.7447 -0.2093 -3.642e-22)
(1.08 -0.1291 -2.241e-21)
(0.7823 -0.201 2.242e-21)
(0.6699 -0.2083 8.735e-22)
(1.124 -0.08898 -1.833e-24)
(0.9956 -0.1977 -8.978e-22)
(0.8327 -0.1648 -3.251e-21)
(0.8774 -0.221 0)
(0.5889 -0.1703 3.06e-24)
(0.8066 -0.2035 0)
(1.021 -0.09815 3.221e-21)
(0.3536 -0.1246 7.612e-24)
(0.6091 -0.196 0)
(0.6623 -0.054 0)
(1.111 -0.08429 -1.135e-23)
(0.6864 -0.2122 5.024e-21)
(0.4061 -0.1405 4.65e-23)
(0.6666 -0.2074 -6.331e-22)
(1.063 -0.1748 -1.844e-21)
(-0.05037 -0.03755 -1.33e-22)
(1.303 0.0808 7.06e-22)
(0.723 -0.216 -1.996e-22)
(1.263 -0.004685 -6.705e-22)
(0.7332 -0.1737 7.916e-22)
(1.078 -0.08461 5.537e-24)
(0.6579 -0.1832 -1.86e-22)
(0.6966 -0.2124 -7.561e-22)
(0.6264 -0.2016 -3.129e-22)
(0.5904 -0.164 -5.701e-22)
(0.5752 -0.1579 0)
(0.9682 -0.06339 -2.017e-22)
(0.5886 -0.1929 -4.419e-22)
(1.122 -0.132 0)
(1.332 0.1723 0)
(0.9423 -0.2114 6.991e-22)
(1.115 -0.09346 0)
(0.7968 0.1039 -6.819e-22)
(0.8014 -0.2223 4.898e-22)
(0.6996 -0.2137 0)
(1.103 -0.1394 -5.251e-23)
(0.9489 -0.209 -1.271e-21)
(0.599 -0.1817 -8.248e-23)
(0.4597 -0.1513 0)
(0.7451 -0.2087 0)
(0.5221 -0.1387 0)
(1.291 0.04011 8.399e-22)
(0.5387 -0.1794 2.359e-22)
(0.3212 -0.1284 0)
(0.9656 -0.1234 0)
(0.7351 -0.2161 0)
(0.8551 -0.2216 3.131e-22)
(0.1784 -0.06361 -3.08e-22)
(0.6611 -0.2092 2.132e-23)
(0.005217 0.003024 -4.306e-25)
(0.3852 -0.09433 1.884e-22)
(0.9042 -0.136 -2.314e-21)
(1.026 -0.07391 1.027e-22)
(0.4523 -0.1272 -4.418e-23)
(0.5675 -0.19 2.743e-24)
(1.132 -0.1354 0)
(1.104 -0.1546 4.987e-22)
(1.159 -0.1098 -1.519e-21)
(0.6628 -0.1586 3.578e-22)
(0.7915 0.0786 3.163e-21)
(0.8461 -0.2225 -3.887e-22)
(0.4891 -0.1649 3.248e-22)
(0.8139 -0.1048 0)
(0.8487 -0.1661 -2.349e-21)
(0.7081 -0.1973 -5.057e-22)
(1.258 0.06209 6.306e-23)
(0.84 -0.2205 -2.46e-22)
(1.141 -0.1252 9.19e-23)
(0.7902 -0.2194 0)
(0.6964 -0.2059 1.618e-21)
(0.3901 -0.1244 0)
(0.4127 -0.1363 -4.293e-23)
(1.115 -0.1385 0)
(0.4389 -0.1404 0)
(1.152 -0.1159 -1.703e-21)
(0.7646 -0.09427 2.395e-21)
(0.5597 -0.1779 0)
(0.7783 -0.2213 0)
(0.6706 -0.2095 -1.479e-22)
(0.9266 -0.1183 -4.005e-21)
(0.8555 -0.2217 0)
(0.7925 -0.0396 -1.168e-22)
(1.062 0.008871 1.726e-21)
(0.3266 -0.1128 3.245e-21)
(0.5142 -0.172 1.512e-22)
(1.207 -0.0808 -1.208e-22)
(0.05865 -0.0708 -1.199e-22)
(0.7927 -0.2081 0)
(0.929 -0.2084 6.016e-22)
(0.422 -0.1459 1.943e-22)
(1.198 -0.08307 9.484e-22)
(0.6069 -0.03393 1.3e-21)
(0.781 -0.2174 -2.531e-21)
(1.255 0.1594 0)
(1.075 -0.08114 -7.986e-24)
(0.7953 0.08974 3.475e-21)
(0.5553 -0.1859 0)
(0.59 -0.1818 1.937e-22)
(1.274 0.06212 -1.427e-21)
(1.089 -0.08317 5.422e-24)
(0.9823 -0.1273 -3.794e-21)
(0.7754 -0.2167 -7.326e-22)
(0.7437 -0.196 -4.88e-21)
(1.006 -0.1971 1.555e-21)
(0.618 -0.1991 1.242e-21)
(0.7708 -0.2151 0)
(0.2943 -0.1537 0)
(0.3665 -0.1273 0)
(0.6796 -0.2067 6.875e-22)
(0.4635 -0.167 0)
(0.3575 -0.1265 0)
(1.044 -0.07597 4.595e-23)
(1.08 -0.1612 1.149e-21)
(1.157 -0.0996 8.662e-22)
(0.8623 -0.2145 2.785e-22)
(0.6308 -0.195 -2.236e-22)
(0.8877 -0.2176 -2.032e-21)
(0.467 -0.02679 -4.545e-22)
(1.068 0.04171 -4.747e-22)
(1.128 -0.1379 5.608e-22)
(0.5046 -0.1714 -4.035e-21)
(0.6725 -0.2095 0)
(1.097 -0.09097 0)
(1.116 -0.146 -8.26e-27)
(0.4027 -0.1023 2.937e-22)
(0.8377 -0.223 -8.3e-22)
(1.116 -0.1306 1.09e-22)
(0.6042 -0.1975 0)
(0.769 -0.192 0)
(1.123 -0.132 0)
(0.05684 -0.09857 -1.027e-22)
(1.036 -0.09136 0)
(1.219 -0.06434 0)
(1.185 -0.09154 0)
(0.1584 -0.05615 5.481e-22)
(0.6546 -0.2064 -1.611e-21)
(0.7471 -0.1838 -2.518e-21)
(1.105 -0.07521 0)
(0.895 -0.2135 0)
(0.633 -0.1452 0)
(1.138 -0.102 3.208e-22)
(0.4424 -0.1404 -4.28e-23)
(0.4896 -0.1611 -9.19e-23)
(1.039 -0.1853 -1.066e-21)
(1.17 -0.113 -9.487e-22)
(0.9164 -0.08482 -1.004e-21)
(1.08 -0.05245 3.037e-21)
(0.819 -0.2201 -1.454e-23)
(0.3661 -0.1281 0)
(0.7857 -0.1563 2.313e-22)
(1.158 -0.08247 0)
(0.6023 -0.1956 1.859e-22)
(0.5876 -0.1908 5.213e-22)
(1.092 -0.145 -3.785e-22)
(0.8255 -0.209 -6.23e-22)
(0.8301 -0.2156 5.096e-22)
(1.312 0.08636 0)
(0.4275 -0.136 -2.539e-23)
(1.167 -0.1026 7.06e-24)
(0.4929 -0.1457 0)
(1.046 -0.1183 4.573e-21)
(1.095 -0.1603 -6.284e-22)
(1.343 0.2122 7.846e-22)
(0.4599 -0.1328 4.358e-21)
(0.5779 -0.1911 -1.946e-22)
(0.9834 -0.07612 -1.248e-23)
(0.8248 -0.1928 1.876e-23)
(1.292 0.03667 -1.502e-21)
(0.6583 -0.1871 -2.257e-22)
(0.4635 -0.1299 -8.452e-21)
(0.4276 -0.1399 -1.611e-23)
(1.078 -0.1636 3.485e-22)
(0.5231 -0.1639 1.05e-22)
(1.027 -0.07919 -3.847e-23)
(1.034 -0.1866 -2.045e-21)
(1.199 -0.08909 -2.01e-21)
(0.6339 -0.03622 0)
(0.3471 -0.109 -1.078e-23)
(0.4258 -0.1399 -3.511e-23)
(0.9743 -0.2055 9.468e-22)
(0.5796 -0.1783 2.752e-24)
(0.4881 -0.1509 0)
(0.7794 -0.2192 1.332e-21)
(0.4303 -0.147 -3.247e-23)
(0.3707 -0.125 5.242e-23)
(0.539 -0.1729 -7.352e-21)
(0.7517 -0.2162 0)
(0.7622 -0.2189 2.374e-25)
(1.121 0.1131 -4.045e-22)
(1.05 0.01303 -1.584e-21)
(0.3493 -0.1115 8.057e-23)
(0.7203 -0.1679 3.377e-22)
(1.09 -0.1324 9.957e-22)
(1.13 -0.1389 0)
(0.7834 -0.2157 1.085e-21)
(0.9241 -0.2134 -2.137e-21)
(0.3537 -0.1251 0)
(0.9502 -0.2085 1.502e-21)
(1.325 0.1753 4.266e-22)
(0.6025 -0.1883 4.399e-22)
(0.6215 -0.1829 -1.158e-22)
(1.061 -0.1743 2.592e-21)
(0.4928 -0.1196 3.766e-22)
(0.5342 -0.1475 -1.793e-22)
(1.1 -0.06301 -9.468e-23)
(0.5593 -0.1774 2.119e-22)
(0.5894 -0.1588 1.555e-22)
(1.044 -0.003143 -1.034e-21)
(0.6433 -0.1173 8.617e-22)
(0.5435 -0.1684 -2.278e-22)
(0.5759 -0.03118 1.671e-23)
(0.5719 -0.1871 -2.599e-22)
(1.04 -0.1455 4.839e-22)
(1.189 -0.09286 5.154e-22)
(0.4827 -0.1641 -2.037e-22)
(1.044 -0.1647 9.197e-22)
(0.4035 -0.1274 4.136e-21)
(0.3224 -0.1165 -2.643e-22)
(0.6016 -0.04304 1.51e-22)
(0.708 -0.1981 9.694e-22)
(0.3971 -0.1402 -3.093e-23)
(0.723 -0.1507 0)
(1.067 -0.03921 -5.225e-23)
(0.5141 -0.0288 7.291e-23)
(1.088 -0.05077 2.833e-22)
(0.9402 -0.07356 7.502e-22)
(1.028 0.01584 0)
(0.5548 -0.1835 0)
(0.7565 -0.2109 8.435e-22)
(0.5038 -0.1404 1.696e-22)
(0.9335 -0.0661 0)
(0.5858 -0.1604 0)
(0.5183 -0.174 0)
(0.9947 -0.1331 1.461e-21)
(1.125 -0.1348 -2.361e-22)
(0.8358 -0.223 -1.444e-21)
(1.103 -0.1575 -3.706e-22)
(0.0772 -0.08284 -1.98e-22)
(0.6008 -0.1454 -8.821e-22)
(0.763 -0.112 0)
(0.8534 -0.1964 2.141e-21)
(1.053 -0.1583 0)
(0.7796 -0.2196 -4.043e-21)
(0.3603 -0.1269 1.043e-22)
(0.6682 -0.1941 -2.584e-22)
(0.6457 -0.203 0)
(0.6953 -0.2092 0)
(0.9852 -0.1967 0)
(0.5056 -0.1706 1.568e-22)
(0.6033 -0.197 1.271e-21)
(0.4715 -0.16 9.922e-23)
(0.7233 -0.1494 4.214e-22)
(0.9327 -0.1972 0)
(1.021 -0.08674 0)
(1.069 -0.1447 -4.11e-21)
(0.5394 -0.1802 1.001e-22)
(0.4282 -0.1129 1.905e-22)
(0.4946 -0.1639 -2.278e-22)
(0.5527 -0.1524 -3.381e-22)
(1.004 -0.1903 6.567e-22)
(0.9031 -0.1254 3.343e-21)
(0.4234 -0.1302 0)
(0.5526 -0.1847 0)
(0.5567 -0.1725 8.513e-23)
(0.7785 -0.2085 0)
(1.111 -0.08582 -7.023e-24)
(0.3872 -0.1363 7.527e-23)
(0.555 -0.1466 -3.534e-22)
(1.281 0.01965 0)
(1.107 -0.1344 0)
(0.4895 -0.1606 3.798e-22)
(1.099 -0.09508 3.53e-23)
(0.8436 -0.1667 -3.458e-21)
(1.264 0.05442 2.08e-21)
(1.091 -0.132 -5.055e-22)
(0.8857 -0.06346 2.246e-22)
(0.7246 -0.1942 -3.71e-22)
(1.102 -0.09007 0)
(0.7515 -0.202 2.258e-22)
(1.102 -0.06124 -6.071e-23)
(0.8094 0.1035 5.342e-21)
(0.88 -0.2036 3.142e-22)
(0.5878 -0.1938 1.586e-21)
(0.6883 -0.2125 -1.44e-21)
(1.035 -0.1872 1.26e-21)
(0.4573 -0.1476 -1.751e-22)
(0.9046 -0.1825 2.167e-21)
(0.466 -0.147 -1.465e-22)
(0.8257 -0.09557 0)
(0.8896 -0.2202 -1.147e-21)
(0.4232 -0.1467 2.867e-22)
(1.119 -0.1453 -2.942e-22)
(1.119 -0.09139 0)
(1.01 -0.1926 -8.483e-22)
(0.9016 -0.2186 -5.678e-22)
(1.297 0.154 1.42e-21)
(0.5014 -0.1597 0)
(0.6281 -0.2021 1.528e-21)
(0.5195 -0.1753 -4.265e-22)
(0.9861 -0.07621 6.752e-23)
(1.107 -0.1551 -3.666e-22)
(0.8539 -0.2206 -1.124e-21)
(0.511 -0.1616 -1.136e-22)
(0.8594 -0.2222 -6.114e-22)
(1.078 -0.1675 8.363e-22)
(1.01 -0.1946 1.327e-21)
(0.629 -0.1993 0)
(0.6938 -0.1997 3.307e-22)
(0.8842 -0.2204 1.904e-21)
(0.4172 -0.1385 -4.421e-23)
(0.4817 -0.1621 -2.444e-22)
(0.4463 -0.1547 4.906e-23)
(0.574 -0.1915 7.022e-22)
(1.153 -0.1267 2.325e-22)
(0.5579 -0.1688 2.881e-22)
(0.6792 -0.1806 -7.019e-23)
(0.7363 -0.2185 -1.666e-21)
(0.7228 -0.2107 0)
(1.067 -0.08303 -6.917e-25)
(1.001 -0.1968 0)
(1.083 -0.08669 6.452e-24)
(1.259 0.04888 -1.287e-21)
(0.5089 -0.1617 2.71e-22)
(1.129 -0.07799 -4.009e-23)
(0.6808 -0.06597 5.047e-21)
(0.7305 -0.2173 0)
(0.6662 -0.2062 -3.077e-22)
(1.094 -0.07402 2.281e-22)
(1.024 -0.1814 -2.182e-21)
(0.3364 -0.1309 1.834e-23)
(0.5413 -0.1455 -3.317e-22)
(1.004 -0.09349 3.656e-21)
(1.2 -0.05735 -1.267e-21)
(1.078 -0.1501 0)
(0.4874 -0.1008 -4.283e-22)
(0.619 -0.1592 0)
(0.5455 -0.1137 0)
(0.4957 -0.1716 0)
(1.076 -0.03633 -1.459e-22)
(0.5815 -0.1879 -2.661e-22)
(1.032 -0.02636 9.744e-23)
(0.4579 -0.1608 -1.603e-21)
(0.6966 -0.1745 0)
(1.122 -0.1455 -4.224e-22)
(1.104 -0.1424 -4.678e-22)
(1.072 -0.1424 -2.863e-23)
(1.056 -0.1049 0)
(0.3388 -0.1213 -1.206e-22)
(0.7067 -0.1482 4.208e-22)
(1.001 -0.08918 1.67e-21)
(0.3671 -0.1272 0)
(0.9474 -0.1531 -1.38e-21)
(0.5181 -0.1776 -9.565e-23)
(0.9734 -0.1567 0)
(1.016 -0.1854 3.843e-22)
(1.115 -0.1183 -3.413e-21)
(0.6827 -0.2114 4.773e-22)
(0.7441 -0.219 0)
(0.5055 -0.1407 -2.274e-22)
(0.2992 -0.08528 -1.466e-22)
(0.8693 -0.2204 5.547e-22)
(0.726 -0.2167 0)
(0.2982 -0.1115 -1.357e-21)
(0.8209 -0.2123 0)
(0.5036 -0.1672 3.93e-21)
(1.042 -0.03986 1.733e-22)
(0.7179 -0.2143 0)
(0.8324 -0.2156 -1.014e-21)
(0.3682 -0.1304 0)
(0.6311 -0.1995 0)
(0.7799 -0.218 -1.98e-21)
(0.8725 -0.2204 9.542e-22)
(0.6609 -0.1445 0)
(0.8204 -0.2151 -9.624e-22)
(0.3905 -0.1331 3.846e-23)
(1.212 -0.0169 2.825e-21)
(1.145 -0.1191 8.586e-22)
(0.9245 -0.07153 0)
(0.7394 -0.21 1.022e-22)
(1.032 -0.1863 0)
(0.7771 -0.2202 -1.53e-22)
(0.8663 -0.1874 3.289e-21)
(0.9008 -0.2184 -1.361e-21)
(0.592 -0.1947 9.681e-23)
(0.3992 -0.1387 -1.372e-22)
(0.7217 -0.2159 8.064e-22)
(0.573 -0.1905 9.675e-22)
(0.3023 -0.09718 -1.133e-21)
(1.109 -0.1522 1.864e-22)
(1.27 0.009593 1.133e-21)
(1.004 -0.1944 0)
(0.5786 -0.1779 3.278e-22)
(0.9426 -0.2079 1.576e-21)
(1.007 -0.1592 8.412e-22)
(1.044 -0.1823 -8.218e-22)
(0.2109 -0.1623 -7.178e-23)
(0.7396 -0.1985 0)
(1.044 -0.007686 1.049e-21)
(0.9422 -0.2117 -1.199e-21)
(0.7954 -0.2145 -6.171e-22)
(1.094 -0.161 1.077e-21)
(0.7841 0.03209 -4.886e-21)
(0.6854 -0.2087 4.375e-22)
(1.099 -0.1319 -1.484e-22)
(1.291 0.03609 -8.733e-22)
(1.12 -0.0965 0)
(1.07 -0.145 -5.888e-21)
(1.083 -0.1601 -6.19e-22)
(1.125 -0.1377 3.746e-22)
(1.078 -0.1253 -1.124e-21)
(1.114 -0.09523 1.457e-23)
(0.4302 -0.1534 1.816e-21)
(1.106 -0.08465 -1.812e-24)
(0.6302 -0.2039 0)
(0.8675 -0.1625 -2.128e-21)
(0.4904 -0.158 1.34e-22)
(0.4418 -0.1231 0)
(0.4772 -0.163 0)
(0.9229 -0.2141 -5.639e-22)
(1.213 -0.0555 -3.668e-21)
(0.9095 -0.2175 0)
(0.5748 -0.1865 2.304e-22)
(0.3428 -0.1218 -1.993e-25)
(1.117 -0.1356 -2.83e-21)
(0.3563 -0.126 1.844e-25)
(0.3751 -0.1236 -2.406e-23)
(1.063 -0.1694 1.312e-21)
(1.118 -0.09386 5.824e-23)
(0.2973 -0.1238 0)
(0.7562 -0.2195 0)
(0.5614 -0.1843 6.98e-23)
(1.116 -0.142 0)
(1.109 -0.1537 -1.045e-21)
(0.6225 -0.1997 0)
(0.8944 -0.2133 1.068e-21)
(0.4672 -0.1567 1.911e-23)
(-0.05278 -0.0387 0)
(1.05 0.01688 0)
(0.6506 -0.2045 -1.573e-21)
(1.057 -0.03281 0)
(0.5922 -0.1947 6.782e-22)
(0.621 -0.1892 0)
(1.038 -0.09877 0)
(0.3636 -0.1251 4.54e-23)
(0.7181 -0.2147 0)
(0.8728 -0.2168 -1.343e-21)
(1.157 -0.1229 0)
(0.8678 -0.1968 7.352e-22)
(0.6057 -0.1683 5.784e-22)
(0.4348 -0.1111 -9.679e-23)
(0.6665 -0.2069 -9.219e-25)
(0.8621 -0.07817 7.776e-23)
(0.9945 -0.1261 0)
(0.7122 -0.207 1.158e-22)
(1.074 -0.08823 -3.102e-23)
(0.6386 -0.1986 -2.437e-22)
(0.4429 -0.1521 -7.721e-23)
(0.5603 -0.1632 4.543e-22)
(1.108 -0.1095 1.757e-21)
(1.178 -0.01505 0)
(1.071 -0.1375 3.619e-21)
(0.69 -0.04863 0)
(0.8363 -0.1957 1.282e-21)
(0.9501 -0.1971 0)
(0.8147 -0.1914 7.655e-23)
(0.1973 -0.07177 0)
(1.124 -0.131 2.391e-21)
(1.119 -0.09104 -1.383e-23)
(0.8163 -0.06516 -3.851e-23)
(1.122 -0.1162 -3.373e-22)
(0.8698 -0.06636 2.159e-23)
(0.65 -0.2048 -3.904e-22)
(0.8589 -0.2167 0)
(1.275 0.01762 -1.471e-24)
(0.7282 -0.1798 1.173e-21)
(0.8605 -0.2196 -1.456e-21)
(0.9619 -0.1272 0)
(0.3777 -0.121 -4.951e-24)
(1.099 -0.08475 -7.327e-25)
(0.9068 -0.2119 1.803e-21)
(0.7545 -0.1715 6.012e-22)
(0.3542 -0.126 0)
(1.113 -0.1513 7.385e-22)
(0.6778 -0.1957 5.906e-22)
(1.065 -0.1687 9.99e-22)
(0.4773 -0.1634 1.469e-22)
(0.6305 -0.2002 -2.811e-22)
(1.137 -0.1262 -6.126e-22)
(1.125 -0.1383 -7.3e-22)
(0.6356 -0.2031 -1.044e-21)
(1.103 -0.09341 -1.096e-23)
(0.3454 -0.1262 0)
(0.6981 -0.04614 0)
(0.449 -0.02898 3.704e-23)
(0.6329 -0.2029 1.364e-22)
(0.8463 -0.1994 3.6e-21)
(1.09 -0.06106 -8.773e-23)
(0.394 -0.03186 7.655e-22)
(0.5315 -0.1795 5.883e-22)
(1.213 -0.0436 1.901e-21)
(0.6878 -0.1962 0)
(0.4851 -0.1629 -1.395e-22)
(0.3211 -0.09891 -2.405e-21)
(0.8141 -0.2112 7.14e-22)
(0.927 -0.2093 6.666e-22)
(1.177 -0.02507 0)
(0.6381 -0.2013 4.988e-22)
(0.4119 -0.1367 8.703e-23)
(1.124 -0.09505 3.381e-23)
(0.4936 -0.1582 -1.544e-22)
(0.5944 -0.1049 0)
(0.58 -0.1916 -1.88e-23)
(0.9765 -0.1067 0)
(1.031 -0.1847 -3.991e-21)
(1.103 -0.1547 0)
(0.3606 -0.1249 3.19e-21)
(1.278 0.0571 -1.196e-21)
(0.5823 -0.1858 0)
(0.6975 -0.1753 0)
(0.6926 -0.2132 2.275e-21)
(0.8671 -0.2222 0)
(0.4887 -0.1588 1.409e-22)
(0.9719 0.002841 1.031e-22)
(0.3591 -0.1187 0)
(0.5807 -0.1898 7.664e-22)
(1.115 -0.1507 4.687e-22)
(0.8089 -0.1884 0)
(0.7816 -0.2004 0)
(0.7603 -0.1921 1.036e-20)
(0.6199 -0.1861 1.569e-22)
(0.473 -0.1672 1.158e-22)
(1.11 -0.0361 0)
(0.447 -0.1218 1.359e-24)
(1.122 -0.09056 1.283e-23)
(1.049 -0.177 0)
(0.8985 -0.1141 -1.235e-21)
(0.7639 -0.22 -1.621e-21)
(1.304 0.1628 0)
(0.3045 -0.1183 6.484e-22)
(0.5671 -0.1479 0)
(0.2356 -0.0947 0)
(0.9879 -0.1307 5.156e-21)
(0.9705 -0.07699 4.738e-21)
(0.403 -0.1211 7.678e-21)
(0.6033 -0.1978 1.105e-21)
(0.6107 -0.1984 0)
(0.9139 -0.174 0)
(1.071 -0.1549 0)
(0.8398 -0.223 1.025e-21)
(0.6756 -0.1967 7.247e-22)
(1.13 -0.1356 6.153e-22)
(0.5086 -0.1431 0)
(1.308 0.155 -1.162e-21)
(1.043 -0.1838 -4.886e-22)
(0.5181 -0.1742 0)
(1.131 -0.06129 0)
(1.198 -0.09047 1.994e-21)
(0.8647 -0.2218 1.086e-22)
(0.8888 -0.1585 2.093e-21)
(0.2064 -0.1652 0)
(1.105 -0.08526 -2.899e-22)
(0.6935 -0.2129 -3.391e-22)
(0.9402 -0.1813 -1.523e-21)
(0.8369 -0.2229 0)
(0.7929 -0.1947 0)
(0.7427 -0.2142 2.178e-23)
(0.6443 -0.2047 0)
(1.095 -0.07545 -6.836e-23)
(0.7934 -0.2187 3.566e-21)
(0.6166 -0.1977 -3.737e-22)